+ 0.5 0 1 tcp 40 ------- 1 0.0 3.0 0 0
- 0.5 0 1 tcp 40 ------- 1 0.0 3.0 0 0
r 0.510032 0 1 tcp 40 ------- 1 0.0 3.0 0 0
+ 0.510032 1 2 tcp 40 ------- 1 0.0 3.0 0 0
- 0.510032 1 2 tcp 40 ------- 1 0.0 3.0 0 0
r 0.530245 1 2 tcp 40 ------- 1 0.0 3.0 0 0
+ 0.530245 2 3 tcp 40 ------- 1 0.0 3.0 0 0
- 0.530245 2 3 tcp 40 ------- 1 0.0 3.0 0 0
r 0.540277 2 3 tcp 40 ------- 1 0.0 3.0 0 0
+ 0.540277 3 2 ack 40 ------- 1 3.0 0.0 0 1
- 0.540277 3 2 ack 40 ------- 1 3.0 0.0 0 1
r 0.550309 3 2 ack 40 ------- 1 3.0 0.0 0 1
+ 0.550309 2 1 ack 40 ------- 1 3.0 0.0 0 1
- 0.550309 2 1 ack 40 ------- 1 3.0 0.0 0 1
r 0.570523 2 1 ack 40 ------- 1 3.0 0.0 0 1
+ 0.570523 1 0 ack 40 ------- 1 3.0 0.0 0 1
- 0.570523 1 0 ack 40 ------- 1 3.0 0.0 0 1
r 0.580555 1 0 ack 40 ------- 1 3.0 0.0 0 1
+ 0.580555 0 1 tcp 1040 ------- 1 0.0 3.0 1 2
- 0.580555 0 1 tcp 1040 ------- 1 0.0 3.0 1 2
+ 0.580555 0 1 tcp 1040 ------- 1 0.0 3.0 2 3
- 0.581387 0 1 tcp 1040 ------- 1 0.0 3.0 2 3
r 0.591387 0 1 tcp 1040 ------- 1 0.0 3.0 1 2
+ 0.591387 1 2 tcp 1040 ------- 1 0.0 3.0 1 2
- 0.591387 1 2 tcp 1040 ------- 1 0.0 3.0 1 2
r 0.592219 0 1 tcp 1040 ------- 1 0.0 3.0 2 3
+ 0.592219 1 2 tcp 1040 ------- 1 0.0 3.0 2 3
- 0.596933 1 2 tcp 1040 ------- 1 0.0 3.0 2 3
r 0.616933 1 2 tcp 1040 ------- 1 0.0 3.0 1 2
+ 0.616933 2 3 tcp 1040 ------- 1 0.0 3.0 1 2
- 0.616933 2 3 tcp 1040 ------- 1 0.0 3.0 1 2
r 0.62248 1 2 tcp 1040 ------- 1 0.0 3.0 2 3
+ 0.62248 2 3 tcp 1040 ------- 1 0.0 3.0 2 3
- 0.62248 2 3 tcp 1040 ------- 1 0.0 3.0 2 3
r 0.627765 2 3 tcp 1040 ------- 1 0.0 3.0 1 2
+ 0.627765 3 2 ack 40 ------- 1 3.0 0.0 1 4
- 0.627765 3 2 ack 40 ------- 1 3.0 0.0 1 4
r 0.633312 2 3 tcp 1040 ------- 1 0.0 3.0 2 3
+ 0.633312 3 2 ack 40 ------- 1 3.0 0.0 2 5
- 0.633312 3 2 ack 40 ------- 1 3.0 0.0 2 5
r 0.637797 3 2 ack 40 ------- 1 3.0 0.0 1 4
+ 0.637797 2 1 ack 40 ------- 1 3.0 0.0 1 4
- 0.637797 2 1 ack 40 ------- 1 3.0 0.0 1 4
r 0.643344 3 2 ack 40 ------- 1 3.0 0.0 2 5
+ 0.643344 2 1 ack 40 ------- 1 3.0 0.0 2 5
- 0.643344 2 1 ack 40 ------- 1 3.0 0.0 2 5
r 0.658011 2 1 ack 40 ------- 1 3.0 0.0 1 4
+ 0.658011 1 0 ack 40 ------- 1 3.0 0.0 1 4
- 0.658011 1 0 ack 40 ------- 1 3.0 0.0 1 4
r 0.663557 2 1 ack 40 ------- 1 3.0 0.0 2 5
+ 0.663557 1 0 ack 40 ------- 1 3.0 0.0 2 5
- 0.663557 1 0 ack 40 ------- 1 3.0 0.0 2 5
r 0.668043 1 0 ack 40 ------- 1 3.0 0.0 1 4
+ 0.668043 0 1 tcp 1040 ------- 1 0.0 3.0 3 6
- 0.668043 0 1 tcp 1040 ------- 1 0.0 3.0 3 6
+ 0.668043 0 1 tcp 1040 ------- 1 0.0 3.0 4 7
- 0.668875 0 1 tcp 1040 ------- 1 0.0 3.0 4 7
r 0.673589 1 0 ack 40 ------- 1 3.0 0.0 2 5
+ 0.673589 0 1 tcp 1040 ------- 1 0.0 3.0 5 8
- 0.673589 0 1 tcp 1040 ------- 1 0.0 3.0 5 8
+ 0.673589 0 1 tcp 1040 ------- 1 0.0 3.0 6 9
- 0.674421 0 1 tcp 1040 ------- 1 0.0 3.0 6 9
r 0.678875 0 1 tcp 1040 ------- 1 0.0 3.0 3 6
+ 0.678875 1 2 tcp 1040 ------- 1 0.0 3.0 3 6
- 0.678875 1 2 tcp 1040 ------- 1 0.0 3.0 3 6
r 0.679707 0 1 tcp 1040 ------- 1 0.0 3.0 4 7
+ 0.679707 1 2 tcp 1040 ------- 1 0.0 3.0 4 7
r 0.684421 0 1 tcp 1040 ------- 1 0.0 3.0 5 8
+ 0.684421 1 2 tcp 1040 ------- 1 0.0 3.0 5 8
- 0.684421 1 2 tcp 1040 ------- 1 0.0 3.0 4 7
r 0.685253 0 1 tcp 1040 ------- 1 0.0 3.0 6 9
+ 0.685253 1 2 tcp 1040 ------- 1 0.0 3.0 6 9
- 0.689968 1 2 tcp 1040 ------- 1 0.0 3.0 5 8
- 0.695515 1 2 tcp 1040 ------- 1 0.0 3.0 6 9
r 0.704421 1 2 tcp 1040 ------- 1 0.0 3.0 3 6
+ 0.704421 2 3 tcp 1040 ------- 1 0.0 3.0 3 6
- 0.704421 2 3 tcp 1040 ------- 1 0.0 3.0 3 6
r 0.709968 1 2 tcp 1040 ------- 1 0.0 3.0 4 7
+ 0.709968 2 3 tcp 1040 ------- 1 0.0 3.0 4 7
- 0.709968 2 3 tcp 1040 ------- 1 0.0 3.0 4 7
r 0.715253 2 3 tcp 1040 ------- 1 0.0 3.0 3 6
+ 0.715253 3 2 ack 40 ------- 1 3.0 0.0 3 10
- 0.715253 3 2 ack 40 ------- 1 3.0 0.0 3 10
r 0.715515 1 2 tcp 1040 ------- 1 0.0 3.0 5 8
+ 0.715515 2 3 tcp 1040 ------- 1 0.0 3.0 5 8
- 0.715515 2 3 tcp 1040 ------- 1 0.0 3.0 5 8
r 0.7208 2 3 tcp 1040 ------- 1 0.0 3.0 4 7
+ 0.7208 3 2 ack 40 ------- 1 3.0 0.0 4 11
- 0.7208 3 2 ack 40 ------- 1 3.0 0.0 4 11
r 0.721061 1 2 tcp 1040 ------- 1 0.0 3.0 6 9
+ 0.721061 2 3 tcp 1040 ------- 1 0.0 3.0 6 9
- 0.721061 2 3 tcp 1040 ------- 1 0.0 3.0 6 9
r 0.725285 3 2 ack 40 ------- 1 3.0 0.0 3 10
+ 0.725285 2 1 ack 40 ------- 1 3.0 0.0 3 10
- 0.725285 2 1 ack 40 ------- 1 3.0 0.0 3 10
r 0.726347 2 3 tcp 1040 ------- 1 0.0 3.0 5 8
+ 0.726347 3 2 ack 40 ------- 1 3.0 0.0 5 12
- 0.726347 3 2 ack 40 ------- 1 3.0 0.0 5 12
r 0.730832 3 2 ack 40 ------- 1 3.0 0.0 4 11
+ 0.730832 2 1 ack 40 ------- 1 3.0 0.0 4 11
- 0.730832 2 1 ack 40 ------- 1 3.0 0.0 4 11
r 0.731893 2 3 tcp 1040 ------- 1 0.0 3.0 6 9
+ 0.731893 3 2 ack 40 ------- 1 3.0 0.0 6 13
- 0.731893 3 2 ack 40 ------- 1 3.0 0.0 6 13
r 0.736379 3 2 ack 40 ------- 1 3.0 0.0 5 12
+ 0.736379 2 1 ack 40 ------- 1 3.0 0.0 5 12
- 0.736379 2 1 ack 40 ------- 1 3.0 0.0 5 12
r 0.741925 3 2 ack 40 ------- 1 3.0 0.0 6 13
+ 0.741925 2 1 ack 40 ------- 1 3.0 0.0 6 13
- 0.741925 2 1 ack 40 ------- 1 3.0 0.0 6 13
r 0.745499 2 1 ack 40 ------- 1 3.0 0.0 3 10
+ 0.745499 1 0 ack 40 ------- 1 3.0 0.0 3 10
- 0.745499 1 0 ack 40 ------- 1 3.0 0.0 3 10
r 0.751045 2 1 ack 40 ------- 1 3.0 0.0 4 11
+ 0.751045 1 0 ack 40 ------- 1 3.0 0.0 4 11
- 0.751045 1 0 ack 40 ------- 1 3.0 0.0 4 11
r 0.755531 1 0 ack 40 ------- 1 3.0 0.0 3 10
+ 0.755531 0 1 tcp 1040 ------- 1 0.0 3.0 7 14
- 0.755531 0 1 tcp 1040 ------- 1 0.0 3.0 7 14
+ 0.755531 0 1 tcp 1040 ------- 1 0.0 3.0 8 15
- 0.756363 0 1 tcp 1040 ------- 1 0.0 3.0 8 15
r 0.756592 2 1 ack 40 ------- 1 3.0 0.0 5 12
+ 0.756592 1 0 ack 40 ------- 1 3.0 0.0 5 12
- 0.756592 1 0 ack 40 ------- 1 3.0 0.0 5 12
r 0.761077 1 0 ack 40 ------- 1 3.0 0.0 4 11
+ 0.761077 0 1 tcp 1040 ------- 1 0.0 3.0 9 16
- 0.761077 0 1 tcp 1040 ------- 1 0.0 3.0 9 16
+ 0.761077 0 1 tcp 1040 ------- 1 0.0 3.0 10 17
- 0.761909 0 1 tcp 1040 ------- 1 0.0 3.0 10 17
r 0.762139 2 1 ack 40 ------- 1 3.0 0.0 6 13
+ 0.762139 1 0 ack 40 ------- 1 3.0 0.0 6 13
- 0.762139 1 0 ack 40 ------- 1 3.0 0.0 6 13
r 0.766363 0 1 tcp 1040 ------- 1 0.0 3.0 7 14
+ 0.766363 1 2 tcp 1040 ------- 1 0.0 3.0 7 14
- 0.766363 1 2 tcp 1040 ------- 1 0.0 3.0 7 14
r 0.766624 1 0 ack 40 ------- 1 3.0 0.0 5 12
+ 0.766624 0 1 tcp 1040 ------- 1 0.0 3.0 11 18
- 0.766624 0 1 tcp 1040 ------- 1 0.0 3.0 11 18
+ 0.766624 0 1 tcp 1040 ------- 1 0.0 3.0 12 19
r 0.767195 0 1 tcp 1040 ------- 1 0.0 3.0 8 15
+ 0.767195 1 2 tcp 1040 ------- 1 0.0 3.0 8 15
- 0.767456 0 1 tcp 1040 ------- 1 0.0 3.0 12 19
r 0.771909 0 1 tcp 1040 ------- 1 0.0 3.0 9 16
+ 0.771909 1 2 tcp 1040 ------- 1 0.0 3.0 9 16
- 0.771909 1 2 tcp 1040 ------- 1 0.0 3.0 8 15
r 0.772171 1 0 ack 40 ------- 1 3.0 0.0 6 13
+ 0.772171 0 1 tcp 1040 ------- 1 0.0 3.0 13 20
- 0.772171 0 1 tcp 1040 ------- 1 0.0 3.0 13 20
+ 0.772171 0 1 tcp 1040 ------- 1 0.0 3.0 14 21
r 0.772741 0 1 tcp 1040 ------- 1 0.0 3.0 10 17
+ 0.772741 1 2 tcp 1040 ------- 1 0.0 3.0 10 17
- 0.773003 0 1 tcp 1040 ------- 1 0.0 3.0 14 21
r 0.777456 0 1 tcp 1040 ------- 1 0.0 3.0 11 18
+ 0.777456 1 2 tcp 1040 ------- 1 0.0 3.0 11 18
- 0.777456 1 2 tcp 1040 ------- 1 0.0 3.0 9 16
r 0.778288 0 1 tcp 1040 ------- 1 0.0 3.0 12 19
+ 0.778288 1 2 tcp 1040 ------- 1 0.0 3.0 12 19
r 0.783003 0 1 tcp 1040 ------- 1 0.0 3.0 13 20
+ 0.783003 1 2 tcp 1040 ------- 1 0.0 3.0 13 20
- 0.783003 1 2 tcp 1040 ------- 1 0.0 3.0 10 17
r 0.783835 0 1 tcp 1040 ------- 1 0.0 3.0 14 21
+ 0.783835 1 2 tcp 1040 ------- 1 0.0 3.0 14 21
- 0.788549 1 2 tcp 1040 ------- 1 0.0 3.0 11 18
r 0.791909 1 2 tcp 1040 ------- 1 0.0 3.0 7 14
+ 0.791909 2 3 tcp 1040 ------- 1 0.0 3.0 7 14
- 0.791909 2 3 tcp 1040 ------- 1 0.0 3.0 7 14
- 0.794096 1 2 tcp 1040 ------- 1 0.0 3.0 12 19
r 0.797456 1 2 tcp 1040 ------- 1 0.0 3.0 8 15
+ 0.797456 2 3 tcp 1040 ------- 1 0.0 3.0 8 15
- 0.797456 2 3 tcp 1040 ------- 1 0.0 3.0 8 15
- 0.799643 1 2 tcp 1040 ------- 1 0.0 3.0 13 20
r 0.802741 2 3 tcp 1040 ------- 1 0.0 3.0 7 14
+ 0.802741 3 2 ack 40 ------- 1 3.0 0.0 7 22
- 0.802741 3 2 ack 40 ------- 1 3.0 0.0 7 22
r 0.803003 1 2 tcp 1040 ------- 1 0.0 3.0 9 16
+ 0.803003 2 3 tcp 1040 ------- 1 0.0 3.0 9 16
- 0.803003 2 3 tcp 1040 ------- 1 0.0 3.0 9 16
- 0.805189 1 2 tcp 1040 ------- 1 0.0 3.0 14 21
r 0.808288 2 3 tcp 1040 ------- 1 0.0 3.0 8 15
+ 0.808288 3 2 ack 40 ------- 1 3.0 0.0 8 23
- 0.808288 3 2 ack 40 ------- 1 3.0 0.0 8 23
r 0.808549 1 2 tcp 1040 ------- 1 0.0 3.0 10 17
+ 0.808549 2 3 tcp 1040 ------- 1 0.0 3.0 10 17
- 0.808549 2 3 tcp 1040 ------- 1 0.0 3.0 10 17
r 0.812773 3 2 ack 40 ------- 1 3.0 0.0 7 22
+ 0.812773 2 1 ack 40 ------- 1 3.0 0.0 7 22
- 0.812773 2 1 ack 40 ------- 1 3.0 0.0 7 22
r 0.813835 2 3 tcp 1040 ------- 1 0.0 3.0 9 16
+ 0.813835 3 2 ack 40 ------- 1 3.0 0.0 9 24
- 0.813835 3 2 ack 40 ------- 1 3.0 0.0 9 24
r 0.814096 1 2 tcp 1040 ------- 1 0.0 3.0 11 18
+ 0.814096 2 3 tcp 1040 ------- 1 0.0 3.0 11 18
- 0.814096 2 3 tcp 1040 ------- 1 0.0 3.0 11 18
r 0.81832 3 2 ack 40 ------- 1 3.0 0.0 8 23
+ 0.81832 2 1 ack 40 ------- 1 3.0 0.0 8 23
- 0.81832 2 1 ack 40 ------- 1 3.0 0.0 8 23
r 0.819381 2 3 tcp 1040 ------- 1 0.0 3.0 10 17
+ 0.819381 3 2 ack 40 ------- 1 3.0 0.0 10 25
- 0.819381 3 2 ack 40 ------- 1 3.0 0.0 10 25
r 0.819643 1 2 tcp 1040 ------- 1 0.0 3.0 12 19
+ 0.819643 2 3 tcp 1040 ------- 1 0.0 3.0 12 19
- 0.819643 2 3 tcp 1040 ------- 1 0.0 3.0 12 19
r 0.823867 3 2 ack 40 ------- 1 3.0 0.0 9 24
+ 0.823867 2 1 ack 40 ------- 1 3.0 0.0 9 24
- 0.823867 2 1 ack 40 ------- 1 3.0 0.0 9 24
r 0.824928 2 3 tcp 1040 ------- 1 0.0 3.0 11 18
+ 0.824928 3 2 ack 40 ------- 1 3.0 0.0 11 26
- 0.824928 3 2 ack 40 ------- 1 3.0 0.0 11 26
r 0.825189 1 2 tcp 1040 ------- 1 0.0 3.0 13 20
+ 0.825189 2 3 tcp 1040 ------- 1 0.0 3.0 13 20
- 0.825189 2 3 tcp 1040 ------- 1 0.0 3.0 13 20
r 0.829413 3 2 ack 40 ------- 1 3.0 0.0 10 25
+ 0.829413 2 1 ack 40 ------- 1 3.0 0.0 10 25
- 0.829413 2 1 ack 40 ------- 1 3.0 0.0 10 25
r 0.830475 2 3 tcp 1040 ------- 1 0.0 3.0 12 19
+ 0.830475 3 2 ack 40 ------- 1 3.0 0.0 12 27
- 0.830475 3 2 ack 40 ------- 1 3.0 0.0 12 27
r 0.830736 1 2 tcp 1040 ------- 1 0.0 3.0 14 21
+ 0.830736 2 3 tcp 1040 ------- 1 0.0 3.0 14 21
- 0.830736 2 3 tcp 1040 ------- 1 0.0 3.0 14 21
r 0.832987 2 1 ack 40 ------- 1 3.0 0.0 7 22
+ 0.832987 1 0 ack 40 ------- 1 3.0 0.0 7 22
- 0.832987 1 0 ack 40 ------- 1 3.0 0.0 7 22
r 0.83496 3 2 ack 40 ------- 1 3.0 0.0 11 26
+ 0.83496 2 1 ack 40 ------- 1 3.0 0.0 11 26
- 0.83496 2 1 ack 40 ------- 1 3.0 0.0 11 26
r 0.836021 2 3 tcp 1040 ------- 1 0.0 3.0 13 20
+ 0.836021 3 2 ack 40 ------- 1 3.0 0.0 13 28
- 0.836021 3 2 ack 40 ------- 1 3.0 0.0 13 28
r 0.838533 2 1 ack 40 ------- 1 3.0 0.0 8 23
+ 0.838533 1 0 ack 40 ------- 1 3.0 0.0 8 23
- 0.838533 1 0 ack 40 ------- 1 3.0 0.0 8 23
r 0.840507 3 2 ack 40 ------- 1 3.0 0.0 12 27
+ 0.840507 2 1 ack 40 ------- 1 3.0 0.0 12 27
- 0.840507 2 1 ack 40 ------- 1 3.0 0.0 12 27
r 0.841568 2 3 tcp 1040 ------- 1 0.0 3.0 14 21
+ 0.841568 3 2 ack 40 ------- 1 3.0 0.0 14 29
- 0.841568 3 2 ack 40 ------- 1 3.0 0.0 14 29
r 0.843019 1 0 ack 40 ------- 1 3.0 0.0 7 22
+ 0.843019 0 1 tcp 1040 ------- 1 0.0 3.0 15 30
- 0.843019 0 1 tcp 1040 ------- 1 0.0 3.0 15 30
+ 0.843019 0 1 tcp 1040 ------- 1 0.0 3.0 16 31
- 0.843851 0 1 tcp 1040 ------- 1 0.0 3.0 16 31
r 0.84408 2 1 ack 40 ------- 1 3.0 0.0 9 24
+ 0.84408 1 0 ack 40 ------- 1 3.0 0.0 9 24
- 0.84408 1 0 ack 40 ------- 1 3.0 0.0 9 24
r 0.846053 3 2 ack 40 ------- 1 3.0 0.0 13 28
+ 0.846053 2 1 ack 40 ------- 1 3.0 0.0 13 28
- 0.846053 2 1 ack 40 ------- 1 3.0 0.0 13 28
r 0.848565 1 0 ack 40 ------- 1 3.0 0.0 8 23
+ 0.848565 0 1 tcp 1040 ------- 1 0.0 3.0 17 32
- 0.848565 0 1 tcp 1040 ------- 1 0.0 3.0 17 32
+ 0.848565 0 1 tcp 1040 ------- 1 0.0 3.0 18 33
- 0.849397 0 1 tcp 1040 ------- 1 0.0 3.0 18 33
r 0.849627 2 1 ack 40 ------- 1 3.0 0.0 10 25
+ 0.849627 1 0 ack 40 ------- 1 3.0 0.0 10 25
- 0.849627 1 0 ack 40 ------- 1 3.0 0.0 10 25
r 0.8516 3 2 ack 40 ------- 1 3.0 0.0 14 29
+ 0.8516 2 1 ack 40 ------- 1 3.0 0.0 14 29
- 0.8516 2 1 ack 40 ------- 1 3.0 0.0 14 29
r 0.853851 0 1 tcp 1040 ------- 1 0.0 3.0 15 30
+ 0.853851 1 2 tcp 1040 ------- 1 0.0 3.0 15 30
- 0.853851 1 2 tcp 1040 ------- 1 0.0 3.0 15 30
r 0.854112 1 0 ack 40 ------- 1 3.0 0.0 9 24
+ 0.854112 0 1 tcp 1040 ------- 1 0.0 3.0 19 34
- 0.854112 0 1 tcp 1040 ------- 1 0.0 3.0 19 34
+ 0.854112 0 1 tcp 1040 ------- 1 0.0 3.0 20 35
r 0.854683 0 1 tcp 1040 ------- 1 0.0 3.0 16 31
+ 0.854683 1 2 tcp 1040 ------- 1 0.0 3.0 16 31
- 0.854944 0 1 tcp 1040 ------- 1 0.0 3.0 20 35
r 0.855173 2 1 ack 40 ------- 1 3.0 0.0 11 26
+ 0.855173 1 0 ack 40 ------- 1 3.0 0.0 11 26
- 0.855173 1 0 ack 40 ------- 1 3.0 0.0 11 26
r 0.859397 0 1 tcp 1040 ------- 1 0.0 3.0 17 32
+ 0.859397 1 2 tcp 1040 ------- 1 0.0 3.0 17 32
- 0.859397 1 2 tcp 1040 ------- 1 0.0 3.0 16 31
r 0.859659 1 0 ack 40 ------- 1 3.0 0.0 10 25
+ 0.859659 0 1 tcp 1040 ------- 1 0.0 3.0 21 36
- 0.859659 0 1 tcp 1040 ------- 1 0.0 3.0 21 36
+ 0.859659 0 1 tcp 1040 ------- 1 0.0 3.0 22 37
r 0.860229 0 1 tcp 1040 ------- 1 0.0 3.0 18 33
+ 0.860229 1 2 tcp 1040 ------- 1 0.0 3.0 18 33
- 0.860491 0 1 tcp 1040 ------- 1 0.0 3.0 22 37
r 0.86072 2 1 ack 40 ------- 1 3.0 0.0 12 27
+ 0.86072 1 0 ack 40 ------- 1 3.0 0.0 12 27
- 0.86072 1 0 ack 40 ------- 1 3.0 0.0 12 27
r 0.864944 0 1 tcp 1040 ------- 1 0.0 3.0 19 34
+ 0.864944 1 2 tcp 1040 ------- 1 0.0 3.0 19 34
- 0.864944 1 2 tcp 1040 ------- 1 0.0 3.0 17 32
r 0.865205 1 0 ack 40 ------- 1 3.0 0.0 11 26
+ 0.865205 0 1 tcp 1040 ------- 1 0.0 3.0 23 38
- 0.865205 0 1 tcp 1040 ------- 1 0.0 3.0 23 38
+ 0.865205 0 1 tcp 1040 ------- 1 0.0 3.0 24 39
r 0.865776 0 1 tcp 1040 ------- 1 0.0 3.0 20 35
+ 0.865776 1 2 tcp 1040 ------- 1 0.0 3.0 20 35
- 0.866037 0 1 tcp 1040 ------- 1 0.0 3.0 24 39
r 0.866267 2 1 ack 40 ------- 1 3.0 0.0 13 28
+ 0.866267 1 0 ack 40 ------- 1 3.0 0.0 13 28
- 0.866267 1 0 ack 40 ------- 1 3.0 0.0 13 28
r 0.870491 0 1 tcp 1040 ------- 1 0.0 3.0 21 36
+ 0.870491 1 2 tcp 1040 ------- 1 0.0 3.0 21 36
- 0.870491 1 2 tcp 1040 ------- 1 0.0 3.0 18 33
r 0.870752 1 0 ack 40 ------- 1 3.0 0.0 12 27
+ 0.870752 0 1 tcp 1040 ------- 1 0.0 3.0 25 40
- 0.870752 0 1 tcp 1040 ------- 1 0.0 3.0 25 40
+ 0.870752 0 1 tcp 1040 ------- 1 0.0 3.0 26 41
r 0.871323 0 1 tcp 1040 ------- 1 0.0 3.0 22 37
+ 0.871323 1 2 tcp 1040 ------- 1 0.0 3.0 22 37
- 0.871584 0 1 tcp 1040 ------- 1 0.0 3.0 26 41
r 0.871813 2 1 ack 40 ------- 1 3.0 0.0 14 29
+ 0.871813 1 0 ack 40 ------- 1 3.0 0.0 14 29
- 0.871813 1 0 ack 40 ------- 1 3.0 0.0 14 29
r 0.876037 0 1 tcp 1040 ------- 1 0.0 3.0 23 38
+ 0.876037 1 2 tcp 1040 ------- 1 0.0 3.0 23 38
- 0.876037 1 2 tcp 1040 ------- 1 0.0 3.0 19 34
r 0.876299 1 0 ack 40 ------- 1 3.0 0.0 13 28
+ 0.876299 0 1 tcp 1040 ------- 1 0.0 3.0 27 42
- 0.876299 0 1 tcp 1040 ------- 1 0.0 3.0 27 42
+ 0.876299 0 1 tcp 1040 ------- 1 0.0 3.0 28 43
r 0.876869 0 1 tcp 1040 ------- 1 0.0 3.0 24 39
+ 0.876869 1 2 tcp 1040 ------- 1 0.0 3.0 24 39
- 0.877131 0 1 tcp 1040 ------- 1 0.0 3.0 28 43
r 0.879397 1 2 tcp 1040 ------- 1 0.0 3.0 15 30
+ 0.879397 2 3 tcp 1040 ------- 1 0.0 3.0 15 30
- 0.879397 2 3 tcp 1040 ------- 1 0.0 3.0 15 30
r 0.881584 0 1 tcp 1040 ------- 1 0.0 3.0 25 40
+ 0.881584 1 2 tcp 1040 ------- 1 0.0 3.0 25 40
- 0.881584 1 2 tcp 1040 ------- 1 0.0 3.0 20 35
r 0.881845 1 0 ack 40 ------- 1 3.0 0.0 14 29
+ 0.881845 0 1 tcp 1040 ------- 1 0.0 3.0 29 44
- 0.881845 0 1 tcp 1040 ------- 1 0.0 3.0 29 44
+ 0.881845 0 1 tcp 1040 ------- 1 0.0 3.0 30 45
r 0.882416 0 1 tcp 1040 ------- 1 0.0 3.0 26 41
+ 0.882416 1 2 tcp 1040 ------- 1 0.0 3.0 26 41
- 0.882677 0 1 tcp 1040 ------- 1 0.0 3.0 30 45
r 0.884944 1 2 tcp 1040 ------- 1 0.0 3.0 16 31
+ 0.884944 2 3 tcp 1040 ------- 1 0.0 3.0 16 31
- 0.884944 2 3 tcp 1040 ------- 1 0.0 3.0 16 31
r 0.887131 0 1 tcp 1040 ------- 1 0.0 3.0 27 42
+ 0.887131 1 2 tcp 1040 ------- 1 0.0 3.0 27 42
- 0.887131 1 2 tcp 1040 ------- 1 0.0 3.0 21 36
r 0.887963 0 1 tcp 1040 ------- 1 0.0 3.0 28 43
+ 0.887963 1 2 tcp 1040 ------- 1 0.0 3.0 28 43
r 0.890229 2 3 tcp 1040 ------- 1 0.0 3.0 15 30
+ 0.890229 3 2 ack 40 ------- 1 3.0 0.0 15 46
- 0.890229 3 2 ack 40 ------- 1 3.0 0.0 15 46
r 0.890491 1 2 tcp 1040 ------- 1 0.0 3.0 17 32
+ 0.890491 2 3 tcp 1040 ------- 1 0.0 3.0 17 32
- 0.890491 2 3 tcp 1040 ------- 1 0.0 3.0 17 32
r 0.892677 0 1 tcp 1040 ------- 1 0.0 3.0 29 44
+ 0.892677 1 2 tcp 1040 ------- 1 0.0 3.0 29 44
- 0.892677 1 2 tcp 1040 ------- 1 0.0 3.0 22 37
r 0.893509 0 1 tcp 1040 ------- 1 0.0 3.0 30 45
+ 0.893509 1 2 tcp 1040 ------- 1 0.0 3.0 30 45
r 0.895776 2 3 tcp 1040 ------- 1 0.0 3.0 16 31
+ 0.895776 3 2 ack 40 ------- 1 3.0 0.0 16 47
- 0.895776 3 2 ack 40 ------- 1 3.0 0.0 16 47
r 0.896037 1 2 tcp 1040 ------- 1 0.0 3.0 18 33
+ 0.896037 2 3 tcp 1040 ------- 1 0.0 3.0 18 33
- 0.896037 2 3 tcp 1040 ------- 1 0.0 3.0 18 33
- 0.898224 1 2 tcp 1040 ------- 1 0.0 3.0 23 38
r 0.900261 3 2 ack 40 ------- 1 3.0 0.0 15 46
+ 0.900261 2 1 ack 40 ------- 1 3.0 0.0 15 46
- 0.900261 2 1 ack 40 ------- 1 3.0 0.0 15 46
r 0.901323 2 3 tcp 1040 ------- 1 0.0 3.0 17 32
+ 0.901323 3 2 ack 40 ------- 1 3.0 0.0 17 48
- 0.901323 3 2 ack 40 ------- 1 3.0 0.0 17 48
r 0.901584 1 2 tcp 1040 ------- 1 0.0 3.0 19 34
+ 0.901584 2 3 tcp 1040 ------- 1 0.0 3.0 19 34
- 0.901584 2 3 tcp 1040 ------- 1 0.0 3.0 19 34
- 0.903771 1 2 tcp 1040 ------- 1 0.0 3.0 24 39
r 0.905808 3 2 ack 40 ------- 1 3.0 0.0 16 47
+ 0.905808 2 1 ack 40 ------- 1 3.0 0.0 16 47
- 0.905808 2 1 ack 40 ------- 1 3.0 0.0 16 47
r 0.906869 2 3 tcp 1040 ------- 1 0.0 3.0 18 33
+ 0.906869 3 2 ack 40 ------- 1 3.0 0.0 18 49
- 0.906869 3 2 ack 40 ------- 1 3.0 0.0 18 49
r 0.907131 1 2 tcp 1040 ------- 1 0.0 3.0 20 35
+ 0.907131 2 3 tcp 1040 ------- 1 0.0 3.0 20 35
- 0.907131 2 3 tcp 1040 ------- 1 0.0 3.0 20 35
- 0.909317 1 2 tcp 1040 ------- 1 0.0 3.0 25 40
r 0.911355 3 2 ack 40 ------- 1 3.0 0.0 17 48
+ 0.911355 2 1 ack 40 ------- 1 3.0 0.0 17 48
- 0.911355 2 1 ack 40 ------- 1 3.0 0.0 17 48
r 0.912416 2 3 tcp 1040 ------- 1 0.0 3.0 19 34
+ 0.912416 3 2 ack 40 ------- 1 3.0 0.0 19 50
- 0.912416 3 2 ack 40 ------- 1 3.0 0.0 19 50
r 0.912677 1 2 tcp 1040 ------- 1 0.0 3.0 21 36
+ 0.912677 2 3 tcp 1040 ------- 1 0.0 3.0 21 36
- 0.912677 2 3 tcp 1040 ------- 1 0.0 3.0 21 36
- 0.914864 1 2 tcp 1040 ------- 1 0.0 3.0 26 41
r 0.916901 3 2 ack 40 ------- 1 3.0 0.0 18 49
+ 0.916901 2 1 ack 40 ------- 1 3.0 0.0 18 49
- 0.916901 2 1 ack 40 ------- 1 3.0 0.0 18 49
r 0.917963 2 3 tcp 1040 ------- 1 0.0 3.0 20 35
+ 0.917963 3 2 ack 40 ------- 1 3.0 0.0 20 51
- 0.917963 3 2 ack 40 ------- 1 3.0 0.0 20 51
r 0.918224 1 2 tcp 1040 ------- 1 0.0 3.0 22 37
+ 0.918224 2 3 tcp 1040 ------- 1 0.0 3.0 22 37
- 0.918224 2 3 tcp 1040 ------- 1 0.0 3.0 22 37
- 0.920411 1 2 tcp 1040 ------- 1 0.0 3.0 27 42
r 0.920475 2 1 ack 40 ------- 1 3.0 0.0 15 46
+ 0.920475 1 0 ack 40 ------- 1 3.0 0.0 15 46
- 0.920475 1 0 ack 40 ------- 1 3.0 0.0 15 46
r 0.922448 3 2 ack 40 ------- 1 3.0 0.0 19 50
+ 0.922448 2 1 ack 40 ------- 1 3.0 0.0 19 50
- 0.922448 2 1 ack 40 ------- 1 3.0 0.0 19 50
r 0.923509 2 3 tcp 1040 ------- 1 0.0 3.0 21 36
+ 0.923509 3 2 ack 40 ------- 1 3.0 0.0 21 52
- 0.923509 3 2 ack 40 ------- 1 3.0 0.0 21 52
r 0.923771 1 2 tcp 1040 ------- 1 0.0 3.0 23 38
+ 0.923771 2 3 tcp 1040 ------- 1 0.0 3.0 23 38
- 0.923771 2 3 tcp 1040 ------- 1 0.0 3.0 23 38
- 0.925957 1 2 tcp 1040 ------- 1 0.0 3.0 28 43
r 0.926021 2 1 ack 40 ------- 1 3.0 0.0 16 47
+ 0.926021 1 0 ack 40 ------- 1 3.0 0.0 16 47
- 0.926021 1 0 ack 40 ------- 1 3.0 0.0 16 47
r 0.927995 3 2 ack 40 ------- 1 3.0 0.0 20 51
+ 0.927995 2 1 ack 40 ------- 1 3.0 0.0 20 51
- 0.927995 2 1 ack 40 ------- 1 3.0 0.0 20 51
r 0.929056 2 3 tcp 1040 ------- 1 0.0 3.0 22 37
+ 0.929056 3 2 ack 40 ------- 1 3.0 0.0 22 53
- 0.929056 3 2 ack 40 ------- 1 3.0 0.0 22 53
r 0.929317 1 2 tcp 1040 ------- 1 0.0 3.0 24 39
+ 0.929317 2 3 tcp 1040 ------- 1 0.0 3.0 24 39
- 0.929317 2 3 tcp 1040 ------- 1 0.0 3.0 24 39
r 0.930507 1 0 ack 40 ------- 1 3.0 0.0 15 46
+ 0.930507 0 1 tcp 1040 ------- 1 0.0 3.0 31 54
- 0.930507 0 1 tcp 1040 ------- 1 0.0 3.0 31 54
+ 0.930507 0 1 tcp 1040 ------- 1 0.0 3.0 32 55
- 0.931339 0 1 tcp 1040 ------- 1 0.0 3.0 32 55
- 0.931504 1 2 tcp 1040 ------- 1 0.0 3.0 29 44
r 0.931568 2 1 ack 40 ------- 1 3.0 0.0 17 48
+ 0.931568 1 0 ack 40 ------- 1 3.0 0.0 17 48
- 0.931568 1 0 ack 40 ------- 1 3.0 0.0 17 48
r 0.933541 3 2 ack 40 ------- 1 3.0 0.0 21 52
+ 0.933541 2 1 ack 40 ------- 1 3.0 0.0 21 52
- 0.933541 2 1 ack 40 ------- 1 3.0 0.0 21 52
r 0.934603 2 3 tcp 1040 ------- 1 0.0 3.0 23 38
+ 0.934603 3 2 ack 40 ------- 1 3.0 0.0 23 56
- 0.934603 3 2 ack 40 ------- 1 3.0 0.0 23 56
r 0.934864 1 2 tcp 1040 ------- 1 0.0 3.0 25 40
+ 0.934864 2 3 tcp 1040 ------- 1 0.0 3.0 25 40
- 0.934864 2 3 tcp 1040 ------- 1 0.0 3.0 25 40
r 0.936053 1 0 ack 40 ------- 1 3.0 0.0 16 47
+ 0.936053 0 1 tcp 1040 ------- 1 0.0 3.0 33 57
- 0.936053 0 1 tcp 1040 ------- 1 0.0 3.0 33 57
+ 0.936053 0 1 tcp 1040 ------- 1 0.0 3.0 34 58
- 0.936885 0 1 tcp 1040 ------- 1 0.0 3.0 34 58
- 0.937051 1 2 tcp 1040 ------- 1 0.0 3.0 30 45
r 0.937115 2 1 ack 40 ------- 1 3.0 0.0 18 49
+ 0.937115 1 0 ack 40 ------- 1 3.0 0.0 18 49
- 0.937115 1 0 ack 40 ------- 1 3.0 0.0 18 49
r 0.939088 3 2 ack 40 ------- 1 3.0 0.0 22 53
+ 0.939088 2 1 ack 40 ------- 1 3.0 0.0 22 53
- 0.939088 2 1 ack 40 ------- 1 3.0 0.0 22 53
r 0.940149 2 3 tcp 1040 ------- 1 0.0 3.0 24 39
+ 0.940149 3 2 ack 40 ------- 1 3.0 0.0 24 59
- 0.940149 3 2 ack 40 ------- 1 3.0 0.0 24 59
r 0.940411 1 2 tcp 1040 ------- 1 0.0 3.0 26 41
+ 0.940411 2 3 tcp 1040 ------- 1 0.0 3.0 26 41
- 0.940411 2 3 tcp 1040 ------- 1 0.0 3.0 26 41
r 0.941339 0 1 tcp 1040 ------- 1 0.0 3.0 31 54
+ 0.941339 1 2 tcp 1040 ------- 1 0.0 3.0 31 54
r 0.9416 1 0 ack 40 ------- 1 3.0 0.0 17 48
+ 0.9416 0 1 tcp 1040 ------- 1 0.0 3.0 35 60
- 0.9416 0 1 tcp 1040 ------- 1 0.0 3.0 35 60
+ 0.9416 0 1 tcp 1040 ------- 1 0.0 3.0 36 61
r 0.942171 0 1 tcp 1040 ------- 1 0.0 3.0 32 55
+ 0.942171 1 2 tcp 1040 ------- 1 0.0 3.0 32 55
- 0.942432 0 1 tcp 1040 ------- 1 0.0 3.0 36 61
- 0.942597 1 2 tcp 1040 ------- 1 0.0 3.0 31 54
r 0.942661 2 1 ack 40 ------- 1 3.0 0.0 19 50
+ 0.942661 1 0 ack 40 ------- 1 3.0 0.0 19 50
- 0.942661 1 0 ack 40 ------- 1 3.0 0.0 19 50
r 0.944635 3 2 ack 40 ------- 1 3.0 0.0 23 56
+ 0.944635 2 1 ack 40 ------- 1 3.0 0.0 23 56
- 0.944635 2 1 ack 40 ------- 1 3.0 0.0 23 56
r 0.945696 2 3 tcp 1040 ------- 1 0.0 3.0 25 40
+ 0.945696 3 2 ack 40 ------- 1 3.0 0.0 25 62
- 0.945696 3 2 ack 40 ------- 1 3.0 0.0 25 62
r 0.945957 1 2 tcp 1040 ------- 1 0.0 3.0 27 42
+ 0.945957 2 3 tcp 1040 ------- 1 0.0 3.0 27 42
- 0.945957 2 3 tcp 1040 ------- 1 0.0 3.0 27 42
r 0.946885 0 1 tcp 1040 ------- 1 0.0 3.0 33 57
+ 0.946885 1 2 tcp 1040 ------- 1 0.0 3.0 33 57
r 0.947147 1 0 ack 40 ------- 1 3.0 0.0 18 49
+ 0.947147 0 1 tcp 1040 ------- 1 0.0 3.0 37 63
- 0.947147 0 1 tcp 1040 ------- 1 0.0 3.0 37 63
+ 0.947147 0 1 tcp 1040 ------- 1 0.0 3.0 38 64
r 0.947717 0 1 tcp 1040 ------- 1 0.0 3.0 34 58
+ 0.947717 1 2 tcp 1040 ------- 1 0.0 3.0 34 58
- 0.947979 0 1 tcp 1040 ------- 1 0.0 3.0 38 64
- 0.948144 1 2 tcp 1040 ------- 1 0.0 3.0 32 55
r 0.948208 2 1 ack 40 ------- 1 3.0 0.0 20 51
+ 0.948208 1 0 ack 40 ------- 1 3.0 0.0 20 51
- 0.948208 1 0 ack 40 ------- 1 3.0 0.0 20 51
r 0.950181 3 2 ack 40 ------- 1 3.0 0.0 24 59
+ 0.950181 2 1 ack 40 ------- 1 3.0 0.0 24 59
- 0.950181 2 1 ack 40 ------- 1 3.0 0.0 24 59
r 0.951243 2 3 tcp 1040 ------- 1 0.0 3.0 26 41
+ 0.951243 3 2 ack 40 ------- 1 3.0 0.0 26 65
- 0.951243 3 2 ack 40 ------- 1 3.0 0.0 26 65
r 0.951504 1 2 tcp 1040 ------- 1 0.0 3.0 28 43
+ 0.951504 2 3 tcp 1040 ------- 1 0.0 3.0 28 43
- 0.951504 2 3 tcp 1040 ------- 1 0.0 3.0 28 43
r 0.952432 0 1 tcp 1040 ------- 1 0.0 3.0 35 60
+ 0.952432 1 2 tcp 1040 ------- 1 0.0 3.0 35 60
r 0.952693 1 0 ack 40 ------- 1 3.0 0.0 19 50
+ 0.952693 0 1 tcp 1040 ------- 1 0.0 3.0 39 66
- 0.952693 0 1 tcp 1040 ------- 1 0.0 3.0 39 66
r 0.953264 0 1 tcp 1040 ------- 1 0.0 3.0 36 61
+ 0.953264 1 2 tcp 1040 ------- 1 0.0 3.0 36 61
- 0.953691 1 2 tcp 1040 ------- 1 0.0 3.0 33 57
r 0.953755 2 1 ack 40 ------- 1 3.0 0.0 21 52
+ 0.953755 1 0 ack 40 ------- 1 3.0 0.0 21 52
- 0.953755 1 0 ack 40 ------- 1 3.0 0.0 21 52
r 0.955728 3 2 ack 40 ------- 1 3.0 0.0 25 62
+ 0.955728 2 1 ack 40 ------- 1 3.0 0.0 25 62
- 0.955728 2 1 ack 40 ------- 1 3.0 0.0 25 62
r 0.956789 2 3 tcp 1040 ------- 1 0.0 3.0 27 42
+ 0.956789 3 2 ack 40 ------- 1 3.0 0.0 27 67
- 0.956789 3 2 ack 40 ------- 1 3.0 0.0 27 67
r 0.957051 1 2 tcp 1040 ------- 1 0.0 3.0 29 44
+ 0.957051 2 3 tcp 1040 ------- 1 0.0 3.0 29 44
- 0.957051 2 3 tcp 1040 ------- 1 0.0 3.0 29 44
r 0.957979 0 1 tcp 1040 ------- 1 0.0 3.0 37 63
+ 0.957979 1 2 tcp 1040 ------- 1 0.0 3.0 37 63
r 0.95824 1 0 ack 40 ------- 1 3.0 0.0 20 51
+ 0.95824 0 1 tcp 1040 ------- 1 0.0 3.0 40 68
- 0.95824 0 1 tcp 1040 ------- 1 0.0 3.0 40 68
r 0.958811 0 1 tcp 1040 ------- 1 0.0 3.0 38 64
+ 0.958811 1 2 tcp 1040 ------- 1 0.0 3.0 38 64
- 0.959237 1 2 tcp 1040 ------- 1 0.0 3.0 34 58
r 0.959301 2 1 ack 40 ------- 1 3.0 0.0 22 53
+ 0.959301 1 0 ack 40 ------- 1 3.0 0.0 22 53
- 0.959301 1 0 ack 40 ------- 1 3.0 0.0 22 53
r 0.961275 3 2 ack 40 ------- 1 3.0 0.0 26 65
+ 0.961275 2 1 ack 40 ------- 1 3.0 0.0 26 65
- 0.961275 2 1 ack 40 ------- 1 3.0 0.0 26 65
r 0.962336 2 3 tcp 1040 ------- 1 0.0 3.0 28 43
+ 0.962336 3 2 ack 40 ------- 1 3.0 0.0 28 69
- 0.962336 3 2 ack 40 ------- 1 3.0 0.0 28 69
r 0.962597 1 2 tcp 1040 ------- 1 0.0 3.0 30 45
+ 0.962597 2 3 tcp 1040 ------- 1 0.0 3.0 30 45
- 0.962597 2 3 tcp 1040 ------- 1 0.0 3.0 30 45
r 0.963525 0 1 tcp 1040 ------- 1 0.0 3.0 39 66
+ 0.963525 1 2 tcp 1040 ------- 1 0.0 3.0 39 66
r 0.963787 1 0 ack 40 ------- 1 3.0 0.0 21 52
+ 0.963787 0 1 tcp 1040 ------- 1 0.0 3.0 41 70
- 0.963787 0 1 tcp 1040 ------- 1 0.0 3.0 41 70
- 0.964784 1 2 tcp 1040 ------- 1 0.0 3.0 35 60
r 0.964848 2 1 ack 40 ------- 1 3.0 0.0 23 56
+ 0.964848 1 0 ack 40 ------- 1 3.0 0.0 23 56
- 0.964848 1 0 ack 40 ------- 1 3.0 0.0 23 56
r 0.966821 3 2 ack 40 ------- 1 3.0 0.0 27 67
+ 0.966821 2 1 ack 40 ------- 1 3.0 0.0 27 67
- 0.966821 2 1 ack 40 ------- 1 3.0 0.0 27 67
r 0.967883 2 3 tcp 1040 ------- 1 0.0 3.0 29 44
+ 0.967883 3 2 ack 40 ------- 1 3.0 0.0 29 71
- 0.967883 3 2 ack 40 ------- 1 3.0 0.0 29 71
r 0.968144 1 2 tcp 1040 ------- 1 0.0 3.0 31 54
+ 0.968144 2 3 tcp 1040 ------- 1 0.0 3.0 31 54
- 0.968144 2 3 tcp 1040 ------- 1 0.0 3.0 31 54
r 0.969072 0 1 tcp 1040 ------- 1 0.0 3.0 40 68
+ 0.969072 1 2 tcp 1040 ------- 1 0.0 3.0 40 68
r 0.969333 1 0 ack 40 ------- 1 3.0 0.0 22 53
+ 0.969333 0 1 tcp 1040 ------- 1 0.0 3.0 42 72
- 0.969333 0 1 tcp 1040 ------- 1 0.0 3.0 42 72
- 0.970331 1 2 tcp 1040 ------- 1 0.0 3.0 36 61
r 0.970395 2 1 ack 40 ------- 1 3.0 0.0 24 59
+ 0.970395 1 0 ack 40 ------- 1 3.0 0.0 24 59
- 0.970395 1 0 ack 40 ------- 1 3.0 0.0 24 59
r 0.972368 3 2 ack 40 ------- 1 3.0 0.0 28 69
+ 0.972368 2 1 ack 40 ------- 1 3.0 0.0 28 69
- 0.972368 2 1 ack 40 ------- 1 3.0 0.0 28 69
r 0.973429 2 3 tcp 1040 ------- 1 0.0 3.0 30 45
+ 0.973429 3 2 ack 40 ------- 1 3.0 0.0 30 73
- 0.973429 3 2 ack 40 ------- 1 3.0 0.0 30 73
r 0.973691 1 2 tcp 1040 ------- 1 0.0 3.0 32 55
+ 0.973691 2 3 tcp 1040 ------- 1 0.0 3.0 32 55
- 0.973691 2 3 tcp 1040 ------- 1 0.0 3.0 32 55
r 0.974619 0 1 tcp 1040 ------- 1 0.0 3.0 41 70
+ 0.974619 1 2 tcp 1040 ------- 1 0.0 3.0 41 70
r 0.97488 1 0 ack 40 ------- 1 3.0 0.0 23 56
+ 0.97488 0 1 tcp 1040 ------- 1 0.0 3.0 43 74
- 0.97488 0 1 tcp 1040 ------- 1 0.0 3.0 43 74
- 0.975877 1 2 tcp 1040 ------- 1 0.0 3.0 37 63
r 0.975941 2 1 ack 40 ------- 1 3.0 0.0 25 62
+ 0.975941 1 0 ack 40 ------- 1 3.0 0.0 25 62
- 0.975941 1 0 ack 40 ------- 1 3.0 0.0 25 62
r 0.977915 3 2 ack 40 ------- 1 3.0 0.0 29 71
+ 0.977915 2 1 ack 40 ------- 1 3.0 0.0 29 71
- 0.977915 2 1 ack 40 ------- 1 3.0 0.0 29 71
r 0.978976 2 3 tcp 1040 ------- 1 0.0 3.0 31 54
+ 0.978976 3 2 ack 40 ------- 1 3.0 0.0 31 75
- 0.978976 3 2 ack 40 ------- 1 3.0 0.0 31 75
r 0.979237 1 2 tcp 1040 ------- 1 0.0 3.0 33 57
+ 0.979237 2 3 tcp 1040 ------- 1 0.0 3.0 33 57
- 0.979237 2 3 tcp 1040 ------- 1 0.0 3.0 33 57
r 0.980165 0 1 tcp 1040 ------- 1 0.0 3.0 42 72
+ 0.980165 1 2 tcp 1040 ------- 1 0.0 3.0 42 72
r 0.980427 1 0 ack 40 ------- 1 3.0 0.0 24 59
+ 0.980427 0 1 tcp 1040 ------- 1 0.0 3.0 44 76
- 0.980427 0 1 tcp 1040 ------- 1 0.0 3.0 44 76
- 0.981424 1 2 tcp 1040 ------- 1 0.0 3.0 38 64
r 0.981488 2 1 ack 40 ------- 1 3.0 0.0 26 65
+ 0.981488 1 0 ack 40 ------- 1 3.0 0.0 26 65
- 0.981488 1 0 ack 40 ------- 1 3.0 0.0 26 65
r 0.983461 3 2 ack 40 ------- 1 3.0 0.0 30 73
+ 0.983461 2 1 ack 40 ------- 1 3.0 0.0 30 73
- 0.983461 2 1 ack 40 ------- 1 3.0 0.0 30 73
r 0.984523 2 3 tcp 1040 ------- 1 0.0 3.0 32 55
+ 0.984523 3 2 ack 40 ------- 1 3.0 0.0 32 77
- 0.984523 3 2 ack 40 ------- 1 3.0 0.0 32 77
r 0.984784 1 2 tcp 1040 ------- 1 0.0 3.0 34 58
+ 0.984784 2 3 tcp 1040 ------- 1 0.0 3.0 34 58
- 0.984784 2 3 tcp 1040 ------- 1 0.0 3.0 34 58
r 0.985712 0 1 tcp 1040 ------- 1 0.0 3.0 43 74
+ 0.985712 1 2 tcp 1040 ------- 1 0.0 3.0 43 74
r 0.985973 1 0 ack 40 ------- 1 3.0 0.0 25 62
+ 0.985973 0 1 tcp 1040 ------- 1 0.0 3.0 45 78
- 0.985973 0 1 tcp 1040 ------- 1 0.0 3.0 45 78
- 0.986971 1 2 tcp 1040 ------- 1 0.0 3.0 39 66
r 0.987035 2 1 ack 40 ------- 1 3.0 0.0 27 67
+ 0.987035 1 0 ack 40 ------- 1 3.0 0.0 27 67
- 0.987035 1 0 ack 40 ------- 1 3.0 0.0 27 67
r 0.989008 3 2 ack 40 ------- 1 3.0 0.0 31 75
+ 0.989008 2 1 ack 40 ------- 1 3.0 0.0 31 75
- 0.989008 2 1 ack 40 ------- 1 3.0 0.0 31 75
r 0.990069 2 3 tcp 1040 ------- 1 0.0 3.0 33 57
+ 0.990069 3 2 ack 40 ------- 1 3.0 0.0 33 79
- 0.990069 3 2 ack 40 ------- 1 3.0 0.0 33 79
r 0.990331 1 2 tcp 1040 ------- 1 0.0 3.0 35 60
+ 0.990331 2 3 tcp 1040 ------- 1 0.0 3.0 35 60
- 0.990331 2 3 tcp 1040 ------- 1 0.0 3.0 35 60
r 0.991259 0 1 tcp 1040 ------- 1 0.0 3.0 44 76
+ 0.991259 1 2 tcp 1040 ------- 1 0.0 3.0 44 76
r 0.99152 1 0 ack 40 ------- 1 3.0 0.0 26 65
+ 0.99152 0 1 tcp 1040 ------- 1 0.0 3.0 46 80
- 0.99152 0 1 tcp 1040 ------- 1 0.0 3.0 46 80
- 0.992517 1 2 tcp 1040 ------- 1 0.0 3.0 40 68
r 0.992581 2 1 ack 40 ------- 1 3.0 0.0 28 69