+ 0.5 0 2 tcp 40 ------- 1 0.0 4.0 0 0
- 0.5 0 2 tcp 40 ------- 1 0.0 4.0 0 0
+ 0.5 1 2 cbr 1000 ------- 2 1.0 5.0 0 1
- 0.5 1 2 cbr 1000 ------- 2 1.0 5.0 0 1
+ 0.505714 1 2 cbr 1000 ------- 2 1.0 5.0 1 2
- 0.505714 1 2 cbr 1000 ------- 2 1.0 5.0 1 2
r 0.510032 0 2 tcp 40 ------- 1 0.0 4.0 0 0
+ 0.510032 2 3 tcp 40 ------- 1 0.0 4.0 0 0
- 0.510032 2 3 tcp 40 ------- 1 0.0 4.0 0 0
r 0.5108 1 2 cbr 1000 ------- 2 1.0 5.0 0 1
+ 0.5108 2 3 cbr 1000 ------- 2 1.0 5.0 0 1
- 0.5108 2 3 cbr 1000 ------- 2 1.0 5.0 0 1
+ 0.511429 1 2 cbr 1000 ------- 2 1.0 5.0 2 3
- 0.511429 1 2 cbr 1000 ------- 2 1.0 5.0 2 3
r 0.516514 1 2 cbr 1000 ------- 2 1.0 5.0 1 2
+ 0.516514 2 3 cbr 1000 ------- 2 1.0 5.0 1 2
- 0.516514 2 3 cbr 1000 ------- 2 1.0 5.0 1 2
+ 0.517143 1 2 cbr 1000 ------- 2 1.0 5.0 3 4
- 0.517143 1 2 cbr 1000 ------- 2 1.0 5.0 3 4
r 0.522229 1 2 cbr 1000 ------- 2 1.0 5.0 2 3
+ 0.522229 2 3 cbr 1000 ------- 2 1.0 5.0 2 3
- 0.522229 2 3 cbr 1000 ------- 2 1.0 5.0 2 3
+ 0.522857 1 2 cbr 1000 ------- 2 1.0 5.0 4 5
- 0.522857 1 2 cbr 1000 ------- 2 1.0 5.0 4 5
r 0.527943 1 2 cbr 1000 ------- 2 1.0 5.0 3 4
+ 0.527943 2 3 cbr 1000 ------- 2 1.0 5.0 3 4
- 0.527943 2 3 cbr 1000 ------- 2 1.0 5.0 3 4
+ 0.528571 1 2 cbr 1000 ------- 2 1.0 5.0 5 6
- 0.528571 1 2 cbr 1000 ------- 2 1.0 5.0 5 6
r 0.530245 2 3 tcp 40 ------- 1 0.0 4.0 0 0
+ 0.530245 3 4 tcp 40 ------- 1 0.0 4.0 0 0
- 0.530245 3 4 tcp 40 ------- 1 0.0 4.0 0 0
r 0.533657 1 2 cbr 1000 ------- 2 1.0 5.0 4 5
+ 0.533657 2 3 cbr 1000 ------- 2 1.0 5.0 4 5
- 0.533657 2 3 cbr 1000 ------- 2 1.0 5.0 4 5
+ 0.534286 1 2 cbr 1000 ------- 2 1.0 5.0 6 7
- 0.534286 1 2 cbr 1000 ------- 2 1.0 5.0 6 7
r 0.536133 2 3 cbr 1000 ------- 2 1.0 5.0 0 1
+ 0.536133 3 5 cbr 1000 ------- 2 1.0 5.0 0 1
- 0.536133 3 5 cbr 1000 ------- 2 1.0 5.0 0 1
r 0.539371 1 2 cbr 1000 ------- 2 1.0 5.0 5 6
+ 0.539371 2 3 cbr 1000 ------- 2 1.0 5.0 5 6
- 0.539371 2 3 cbr 1000 ------- 2 1.0 5.0 5 6
+ 0.54 1 2 cbr 1000 ------- 2 1.0 5.0 7 8
- 0.54 1 2 cbr 1000 ------- 2 1.0 5.0 7 8
r 0.540277 3 4 tcp 40 ------- 1 0.0 4.0 0 0
+ 0.540277 4 3 ack 40 ------- 1 4.0 0.0 0 9
- 0.540277 4 3 ack 40 ------- 1 4.0 0.0 0 9
r 0.541848 2 3 cbr 1000 ------- 2 1.0 5.0 1 2
+ 0.541848 3 5 cbr 1000 ------- 2 1.0 5.0 1 2
- 0.541848 3 5 cbr 1000 ------- 2 1.0 5.0 1 2
r 0.545086 1 2 cbr 1000 ------- 2 1.0 5.0 6 7
+ 0.545086 2 3 cbr 1000 ------- 2 1.0 5.0 6 7
- 0.545086 2 3 cbr 1000 ------- 2 1.0 5.0 6 7
+ 0.545714 1 2 cbr 1000 ------- 2 1.0 5.0 8 10
- 0.545714 1 2 cbr 1000 ------- 2 1.0 5.0 8 10
r 0.546933 3 5 cbr 1000 ------- 2 1.0 5.0 0 1
r 0.547562 2 3 cbr 1000 ------- 2 1.0 5.0 2 3
+ 0.547562 3 5 cbr 1000 ------- 2 1.0 5.0 2 3
- 0.547562 3 5 cbr 1000 ------- 2 1.0 5.0 2 3
r 0.550309 4 3 ack 40 ------- 1 4.0 0.0 0 9
+ 0.550309 3 2 ack 40 ------- 1 4.0 0.0 0 9
- 0.550309 3 2 ack 40 ------- 1 4.0 0.0 0 9
r 0.5508 1 2 cbr 1000 ------- 2 1.0 5.0 7 8
+ 0.5508 2 3 cbr 1000 ------- 2 1.0 5.0 7 8
- 0.5508 2 3 cbr 1000 ------- 2 1.0 5.0 7 8
+ 0.551429 1 2 cbr 1000 ------- 2 1.0 5.0 9 11
- 0.551429 1 2 cbr 1000 ------- 2 1.0 5.0 9 11
r 0.552648 3 5 cbr 1000 ------- 2 1.0 5.0 1 2
r 0.553276 2 3 cbr 1000 ------- 2 1.0 5.0 3 4
+ 0.553276 3 5 cbr 1000 ------- 2 1.0 5.0 3 4
- 0.553276 3 5 cbr 1000 ------- 2 1.0 5.0 3 4
r 0.556514 1 2 cbr 1000 ------- 2 1.0 5.0 8 10
+ 0.556514 2 3 cbr 1000 ------- 2 1.0 5.0 8 10
- 0.556514 2 3 cbr 1000 ------- 2 1.0 5.0 8 10
+ 0.557143 1 2 cbr 1000 ------- 2 1.0 5.0 10 12
- 0.557143 1 2 cbr 1000 ------- 2 1.0 5.0 10 12
r 0.558362 3 5 cbr 1000 ------- 2 1.0 5.0 2 3
r 0.55899 2 3 cbr 1000 ------- 2 1.0 5.0 4 5
+ 0.55899 3 5 cbr 1000 ------- 2 1.0 5.0 4 5
- 0.55899 3 5 cbr 1000 ------- 2 1.0 5.0 4 5
r 0.562229 1 2 cbr 1000 ------- 2 1.0 5.0 9 11
+ 0.562229 2 3 cbr 1000 ------- 2 1.0 5.0 9 11
- 0.562229 2 3 cbr 1000 ------- 2 1.0 5.0 9 11
+ 0.562857 1 2 cbr 1000 ------- 2 1.0 5.0 11 13
- 0.562857 1 2 cbr 1000 ------- 2 1.0 5.0 11 13
r 0.564076 3 5 cbr 1000 ------- 2 1.0 5.0 3 4
r 0.564705 2 3 cbr 1000 ------- 2 1.0 5.0 5 6
+ 0.564705 3 5 cbr 1000 ------- 2 1.0 5.0 5 6
- 0.564705 3 5 cbr 1000 ------- 2 1.0 5.0 5 6
r 0.567943 1 2 cbr 1000 ------- 2 1.0 5.0 10 12
+ 0.567943 2 3 cbr 1000 ------- 2 1.0 5.0 10 12
- 0.567943 2 3 cbr 1000 ------- 2 1.0 5.0 10 12
+ 0.568571 1 2 cbr 1000 ------- 2 1.0 5.0 12 14
- 0.568571 1 2 cbr 1000 ------- 2 1.0 5.0 12 14
r 0.56979 3 5 cbr 1000 ------- 2 1.0 5.0 4 5
r 0.570419 2 3 cbr 1000 ------- 2 1.0 5.0 6 7
+ 0.570419 3 5 cbr 1000 ------- 2 1.0 5.0 6 7
- 0.570419 3 5 cbr 1000 ------- 2 1.0 5.0 6 7
r 0.570523 3 2 ack 40 ------- 1 4.0 0.0 0 9
+ 0.570523 2 0 ack 40 ------- 1 4.0 0.0 0 9
- 0.570523 2 0 ack 40 ------- 1 4.0 0.0 0 9
r 0.573657 1 2 cbr 1000 ------- 2 1.0 5.0 11 13
+ 0.573657 2 3 cbr 1000 ------- 2 1.0 5.0 11 13
- 0.573657 2 3 cbr 1000 ------- 2 1.0 5.0 11 13
+ 0.574286 1 2 cbr 1000 ------- 2 1.0 5.0 13 15
- 0.574286 1 2 cbr 1000 ------- 2 1.0 5.0 13 15
r 0.575505 3 5 cbr 1000 ------- 2 1.0 5.0 5 6
r 0.576133 2 3 cbr 1000 ------- 2 1.0 5.0 7 8
+ 0.576133 3 5 cbr 1000 ------- 2 1.0 5.0 7 8
- 0.576133 3 5 cbr 1000 ------- 2 1.0 5.0 7 8
r 0.579371 1 2 cbr 1000 ------- 2 1.0 5.0 12 14
+ 0.579371 2 3 cbr 1000 ------- 2 1.0 5.0 12 14
- 0.579371 2 3 cbr 1000 ------- 2 1.0 5.0 12 14
+ 0.58 1 2 cbr 1000 ------- 2 1.0 5.0 14 16
- 0.58 1 2 cbr 1000 ------- 2 1.0 5.0 14 16
r 0.580555 2 0 ack 40 ------- 1 4.0 0.0 0 9
+ 0.580555 0 2 tcp 1040 ------- 1 0.0 4.0 1 17
- 0.580555 0 2 tcp 1040 ------- 1 0.0 4.0 1 17
+ 0.580555 0 2 tcp 1040 ------- 1 0.0 4.0 2 18
r 0.581219 3 5 cbr 1000 ------- 2 1.0 5.0 6 7
- 0.581387 0 2 tcp 1040 ------- 1 0.0 4.0 2 18
r 0.581848 2 3 cbr 1000 ------- 2 1.0 5.0 8 10
+ 0.581848 3 5 cbr 1000 ------- 2 1.0 5.0 8 10
- 0.581848 3 5 cbr 1000 ------- 2 1.0 5.0 8 10
r 0.585086 1 2 cbr 1000 ------- 2 1.0 5.0 13 15
+ 0.585086 2 3 cbr 1000 ------- 2 1.0 5.0 13 15
- 0.585086 2 3 cbr 1000 ------- 2 1.0 5.0 13 15
+ 0.585714 1 2 cbr 1000 ------- 2 1.0 5.0 15 19
- 0.585714 1 2 cbr 1000 ------- 2 1.0 5.0 15 19
r 0.586933 3 5 cbr 1000 ------- 2 1.0 5.0 7 8
r 0.587562 2 3 cbr 1000 ------- 2 1.0 5.0 9 11
+ 0.587562 3 5 cbr 1000 ------- 2 1.0 5.0 9 11
- 0.587562 3 5 cbr 1000 ------- 2 1.0 5.0 9 11
r 0.5908 1 2 cbr 1000 ------- 2 1.0 5.0 14 16
+ 0.5908 2 3 cbr 1000 ------- 2 1.0 5.0 14 16
- 0.5908 2 3 cbr 1000 ------- 2 1.0 5.0 14 16
r 0.591387 0 2 tcp 1040 ------- 1 0.0 4.0 1 17
+ 0.591387 2 3 tcp 1040 ------- 1 0.0 4.0 1 17
+ 0.591429 1 2 cbr 1000 ------- 2 1.0 5.0 16 20
- 0.591429 1 2 cbr 1000 ------- 2 1.0 5.0 16 20
r 0.592219 0 2 tcp 1040 ------- 1 0.0 4.0 2 18
+ 0.592219 2 3 tcp 1040 ------- 1 0.0 4.0 2 18
r 0.592648 3 5 cbr 1000 ------- 2 1.0 5.0 8 10
r 0.593276 2 3 cbr 1000 ------- 2 1.0 5.0 10 12
+ 0.593276 3 5 cbr 1000 ------- 2 1.0 5.0 10 12
- 0.593276 3 5 cbr 1000 ------- 2 1.0 5.0 10 12
- 0.596133 2 3 tcp 1040 ------- 1 0.0 4.0 1 17
r 0.596514 1 2 cbr 1000 ------- 2 1.0 5.0 15 19
+ 0.596514 2 3 cbr 1000 ------- 2 1.0 5.0 15 19
+ 0.597143 1 2 cbr 1000 ------- 2 1.0 5.0 17 21
- 0.597143 1 2 cbr 1000 ------- 2 1.0 5.0 17 21
r 0.598362 3 5 cbr 1000 ------- 2 1.0 5.0 9 11
r 0.59899 2 3 cbr 1000 ------- 2 1.0 5.0 11 13
+ 0.59899 3 5 cbr 1000 ------- 2 1.0 5.0 11 13
- 0.59899 3 5 cbr 1000 ------- 2 1.0 5.0 11 13
- 0.60168 2 3 tcp 1040 ------- 1 0.0 4.0 2 18
r 0.602229 1 2 cbr 1000 ------- 2 1.0 5.0 16 20
+ 0.602229 2 3 cbr 1000 ------- 2 1.0 5.0 16 20
+ 0.602857 1 2 cbr 1000 ------- 2 1.0 5.0 18 22
- 0.602857 1 2 cbr 1000 ------- 2 1.0 5.0 18 22
r 0.604076 3 5 cbr 1000 ------- 2 1.0 5.0 10 12
r 0.604705 2 3 cbr 1000 ------- 2 1.0 5.0 12 14
+ 0.604705 3 5 cbr 1000 ------- 2 1.0 5.0 12 14
- 0.604705 3 5 cbr 1000 ------- 2 1.0 5.0 12 14
- 0.607227 2 3 cbr 1000 ------- 2 1.0 5.0 15 19
r 0.607943 1 2 cbr 1000 ------- 2 1.0 5.0 17 21
+ 0.607943 2 3 cbr 1000 ------- 2 1.0 5.0 17 21
+ 0.608571 1 2 cbr 1000 ------- 2 1.0 5.0 19 23
- 0.608571 1 2 cbr 1000 ------- 2 1.0 5.0 19 23
r 0.60979 3 5 cbr 1000 ------- 2 1.0 5.0 11 13
r 0.610419 2 3 cbr 1000 ------- 2 1.0 5.0 13 15
+ 0.610419 3 5 cbr 1000 ------- 2 1.0 5.0 13 15
- 0.610419 3 5 cbr 1000 ------- 2 1.0 5.0 13 15
- 0.61256 2 3 cbr 1000 ------- 2 1.0 5.0 16 20
r 0.613657 1 2 cbr 1000 ------- 2 1.0 5.0 18 22
+ 0.613657 2 3 cbr 1000 ------- 2 1.0 5.0 18 22
+ 0.614286 1 2 cbr 1000 ------- 2 1.0 5.0 20 24
- 0.614286 1 2 cbr 1000 ------- 2 1.0 5.0 20 24
r 0.615505 3 5 cbr 1000 ------- 2 1.0 5.0 12 14
r 0.616133 2 3 cbr 1000 ------- 2 1.0 5.0 14 16
+ 0.616133 3 5 cbr 1000 ------- 2 1.0 5.0 14 16
- 0.616133 3 5 cbr 1000 ------- 2 1.0 5.0 14 16
- 0.617893 2 3 cbr 1000 ------- 2 1.0 5.0 17 21
r 0.619371 1 2 cbr 1000 ------- 2 1.0 5.0 19 23
+ 0.619371 2 3 cbr 1000 ------- 2 1.0 5.0 19 23
+ 0.62 1 2 cbr 1000 ------- 2 1.0 5.0 21 25
- 0.62 1 2 cbr 1000 ------- 2 1.0 5.0 21 25
r 0.621219 3 5 cbr 1000 ------- 2 1.0 5.0 13 15
r 0.62168 2 3 tcp 1040 ------- 1 0.0 4.0 1 17
+ 0.62168 3 4 tcp 1040 ------- 1 0.0 4.0 1 17
- 0.62168 3 4 tcp 1040 ------- 1 0.0 4.0 1 17
- 0.623227 2 3 cbr 1000 ------- 2 1.0 5.0 18 22
r 0.625086 1 2 cbr 1000 ------- 2 1.0 5.0 20 24
+ 0.625086 2 3 cbr 1000 ------- 2 1.0 5.0 20 24
+ 0.625714 1 2 cbr 1000 ------- 2 1.0 5.0 22 26
- 0.625714 1 2 cbr 1000 ------- 2 1.0 5.0 22 26
r 0.626933 3 5 cbr 1000 ------- 2 1.0 5.0 14 16
r 0.627227 2 3 tcp 1040 ------- 1 0.0 4.0 2 18
+ 0.627227 3 4 tcp 1040 ------- 1 0.0 4.0 2 18
- 0.627227 3 4 tcp 1040 ------- 1 0.0 4.0 2 18
- 0.62856 2 3 cbr 1000 ------- 2 1.0 5.0 19 23
r 0.6308 1 2 cbr 1000 ------- 2 1.0 5.0 21 25
+ 0.6308 2 3 cbr 1000 ------- 2 1.0 5.0 21 25
+ 0.631429 1 2 cbr 1000 ------- 2 1.0 5.0 23 27
- 0.631429 1 2 cbr 1000 ------- 2 1.0 5.0 23 27
r 0.632512 3 4 tcp 1040 ------- 1 0.0 4.0 1 17
+ 0.632512 4 3 ack 40 ------- 1 4.0 0.0 1 28
- 0.632512 4 3 ack 40 ------- 1 4.0 0.0 1 28
r 0.63256 2 3 cbr 1000 ------- 2 1.0 5.0 15 19
+ 0.63256 3 5 cbr 1000 ------- 2 1.0 5.0 15 19
- 0.63256 3 5 cbr 1000 ------- 2 1.0 5.0 15 19
- 0.633893 2 3 cbr 1000 ------- 2 1.0 5.0 20 24
r 0.636514 1 2 cbr 1000 ------- 2 1.0 5.0 22 26
+ 0.636514 2 3 cbr 1000 ------- 2 1.0 5.0 22 26
+ 0.637143 1 2 cbr 1000 ------- 2 1.0 5.0 24 29
- 0.637143 1 2 cbr 1000 ------- 2 1.0 5.0 24 29
r 0.637893 2 3 cbr 1000 ------- 2 1.0 5.0 16 20
+ 0.637893 3 5 cbr 1000 ------- 2 1.0 5.0 16 20
- 0.637893 3 5 cbr 1000 ------- 2 1.0 5.0 16 20
r 0.638059 3 4 tcp 1040 ------- 1 0.0 4.0 2 18
+ 0.638059 4 3 ack 40 ------- 1 4.0 0.0 2 30
- 0.638059 4 3 ack 40 ------- 1 4.0 0.0 2 30
- 0.639227 2 3 cbr 1000 ------- 2 1.0 5.0 21 25
r 0.642229 1 2 cbr 1000 ------- 2 1.0 5.0 23 27
+ 0.642229 2 3 cbr 1000 ------- 2 1.0 5.0 23 27
r 0.642544 4 3 ack 40 ------- 1 4.0 0.0 1 28
+ 0.642544 3 2 ack 40 ------- 1 4.0 0.0 1 28
- 0.642544 3 2 ack 40 ------- 1 4.0 0.0 1 28
+ 0.642857 1 2 cbr 1000 ------- 2 1.0 5.0 25 31
- 0.642857 1 2 cbr 1000 ------- 2 1.0 5.0 25 31
r 0.643227 2 3 cbr 1000 ------- 2 1.0 5.0 17 21
+ 0.643227 3 5 cbr 1000 ------- 2 1.0 5.0 17 21
- 0.643227 3 5 cbr 1000 ------- 2 1.0 5.0 17 21
r 0.64336 3 5 cbr 1000 ------- 2 1.0 5.0 15 19
- 0.64456 2 3 cbr 1000 ------- 2 1.0 5.0 22 26
r 0.647943 1 2 cbr 1000 ------- 2 1.0 5.0 24 29
+ 0.647943 2 3 cbr 1000 ------- 2 1.0 5.0 24 29
r 0.648091 4 3 ack 40 ------- 1 4.0 0.0 2 30
+ 0.648091 3 2 ack 40 ------- 1 4.0 0.0 2 30
- 0.648091 3 2 ack 40 ------- 1 4.0 0.0 2 30
r 0.64856 2 3 cbr 1000 ------- 2 1.0 5.0 18 22
+ 0.64856 3 5 cbr 1000 ------- 2 1.0 5.0 18 22
- 0.64856 3 5 cbr 1000 ------- 2 1.0 5.0 18 22
+ 0.648571 1 2 cbr 1000 ------- 2 1.0 5.0 26 32
- 0.648571 1 2 cbr 1000 ------- 2 1.0 5.0 26 32
r 0.648693 3 5 cbr 1000 ------- 2 1.0 5.0 16 20
- 0.649893 2 3 cbr 1000 ------- 2 1.0 5.0 23 27
r 0.653657 1 2 cbr 1000 ------- 2 1.0 5.0 25 31
+ 0.653657 2 3 cbr 1000 ------- 2 1.0 5.0 25 31
r 0.653893 2 3 cbr 1000 ------- 2 1.0 5.0 19 23
+ 0.653893 3 5 cbr 1000 ------- 2 1.0 5.0 19 23
- 0.653893 3 5 cbr 1000 ------- 2 1.0 5.0 19 23
r 0.654027 3 5 cbr 1000 ------- 2 1.0 5.0 17 21
+ 0.654286 1 2 cbr 1000 ------- 2 1.0 5.0 27 33
- 0.654286 1 2 cbr 1000 ------- 2 1.0 5.0 27 33
- 0.655227 2 3 cbr 1000 ------- 2 1.0 5.0 24 29
r 0.659227 2 3 cbr 1000 ------- 2 1.0 5.0 20 24
+ 0.659227 3 5 cbr 1000 ------- 2 1.0 5.0 20 24
- 0.659227 3 5 cbr 1000 ------- 2 1.0 5.0 20 24
r 0.65936 3 5 cbr 1000 ------- 2 1.0 5.0 18 22
r 0.659371 1 2 cbr 1000 ------- 2 1.0 5.0 26 32
+ 0.659371 2 3 cbr 1000 ------- 2 1.0 5.0 26 32
+ 0.66 1 2 cbr 1000 ------- 2 1.0 5.0 28 34
- 0.66 1 2 cbr 1000 ------- 2 1.0 5.0 28 34
- 0.66056 2 3 cbr 1000 ------- 2 1.0 5.0 25 31
r 0.662757 3 2 ack 40 ------- 1 4.0 0.0 1 28
+ 0.662757 2 0 ack 40 ------- 1 4.0 0.0 1 28
- 0.662757 2 0 ack 40 ------- 1 4.0 0.0 1 28
r 0.66456 2 3 cbr 1000 ------- 2 1.0 5.0 21 25
+ 0.66456 3 5 cbr 1000 ------- 2 1.0 5.0 21 25
- 0.66456 3 5 cbr 1000 ------- 2 1.0 5.0 21 25
r 0.664693 3 5 cbr 1000 ------- 2 1.0 5.0 19 23
r 0.665086 1 2 cbr 1000 ------- 2 1.0 5.0 27 33
+ 0.665086 2 3 cbr 1000 ------- 2 1.0 5.0 27 33
+ 0.665714 1 2 cbr 1000 ------- 2 1.0 5.0 29 35
- 0.665714 1 2 cbr 1000 ------- 2 1.0 5.0 29 35
- 0.665893 2 3 cbr 1000 ------- 2 1.0 5.0 26 32
r 0.668304 3 2 ack 40 ------- 1 4.0 0.0 2 30
+ 0.668304 2 0 ack 40 ------- 1 4.0 0.0 2 30
- 0.668304 2 0 ack 40 ------- 1 4.0 0.0 2 30
r 0.669893 2 3 cbr 1000 ------- 2 1.0 5.0 22 26
+ 0.669893 3 5 cbr 1000 ------- 2 1.0 5.0 22 26
- 0.669893 3 5 cbr 1000 ------- 2 1.0 5.0 22 26
r 0.670027 3 5 cbr 1000 ------- 2 1.0 5.0 20 24
r 0.6708 1 2 cbr 1000 ------- 2 1.0 5.0 28 34
+ 0.6708 2 3 cbr 1000 ------- 2 1.0 5.0 28 34
- 0.671227 2 3 cbr 1000 ------- 2 1.0 5.0 27 33
+ 0.671429 1 2 cbr 1000 ------- 2 1.0 5.0 30 36
- 0.671429 1 2 cbr 1000 ------- 2 1.0 5.0 30 36
r 0.672789 2 0 ack 40 ------- 1 4.0 0.0 1 28
+ 0.672789 0 2 tcp 1040 ------- 1 0.0 4.0 3 37
- 0.672789 0 2 tcp 1040 ------- 1 0.0 4.0 3 37
+ 0.672789 0 2 tcp 1040 ------- 1 0.0 4.0 4 38
- 0.673621 0 2 tcp 1040 ------- 1 0.0 4.0 4 38
r 0.675227 2 3 cbr 1000 ------- 2 1.0 5.0 23 27
+ 0.675227 3 5 cbr 1000 ------- 2 1.0 5.0 23 27
- 0.675227 3 5 cbr 1000 ------- 2 1.0 5.0 23 27
r 0.67536 3 5 cbr 1000 ------- 2 1.0 5.0 21 25
r 0.676514 1 2 cbr 1000 ------- 2 1.0 5.0 29 35
+ 0.676514 2 3 cbr 1000 ------- 2 1.0 5.0 29 35
- 0.67656 2 3 cbr 1000 ------- 2 1.0 5.0 28 34
+ 0.677143 1 2 cbr 1000 ------- 2 1.0 5.0 31 39
- 0.677143 1 2 cbr 1000 ------- 2 1.0 5.0 31 39
r 0.678336 2 0 ack 40 ------- 1 4.0 0.0 2 30
+ 0.678336 0 2 tcp 1040 ------- 1 0.0 4.0 5 40
- 0.678336 0 2 tcp 1040 ------- 1 0.0 4.0 5 40
+ 0.678336 0 2 tcp 1040 ------- 1 0.0 4.0 6 41
- 0.679168 0 2 tcp 1040 ------- 1 0.0 4.0 6 41
r 0.68056 2 3 cbr 1000 ------- 2 1.0 5.0 24 29
+ 0.68056 3 5 cbr 1000 ------- 2 1.0 5.0 24 29
- 0.68056 3 5 cbr 1000 ------- 2 1.0 5.0 24 29
r 0.680693 3 5 cbr 1000 ------- 2 1.0 5.0 22 26
- 0.681893 2 3 cbr 1000 ------- 2 1.0 5.0 29 35
r 0.682229 1 2 cbr 1000 ------- 2 1.0 5.0 30 36
+ 0.682229 2 3 cbr 1000 ------- 2 1.0 5.0 30 36
+ 0.682857 1 2 cbr 1000 ------- 2 1.0 5.0 32 42
- 0.682857 1 2 cbr 1000 ------- 2 1.0 5.0 32 42
r 0.683621 0 2 tcp 1040 ------- 1 0.0 4.0 3 37
+ 0.683621 2 3 tcp 1040 ------- 1 0.0 4.0 3 37
r 0.684453 0 2 tcp 1040 ------- 1 0.0 4.0 4 38
+ 0.684453 2 3 tcp 1040 ------- 1 0.0 4.0 4 38
r 0.685893 2 3 cbr 1000 ------- 2 1.0 5.0 25 31
+ 0.685893 3 5 cbr 1000 ------- 2 1.0 5.0 25 31
- 0.685893 3 5 cbr 1000 ------- 2 1.0 5.0 25 31
r 0.686027 3 5 cbr 1000 ------- 2 1.0 5.0 23 27
- 0.687227 2 3 cbr 1000 ------- 2 1.0 5.0 30 36
r 0.687943 1 2 cbr 1000 ------- 2 1.0 5.0 31 39
+ 0.687943 2 3 cbr 1000 ------- 2 1.0 5.0 31 39
+ 0.688571 1 2 cbr 1000 ------- 2 1.0 5.0 33 43
- 0.688571 1 2 cbr 1000 ------- 2 1.0 5.0 33 43
r 0.689168 0 2 tcp 1040 ------- 1 0.0 4.0 5 40
+ 0.689168 2 3 tcp 1040 ------- 1 0.0 4.0 5 40
r 0.69 0 2 tcp 1040 ------- 1 0.0 4.0 6 41
+ 0.69 2 3 tcp 1040 ------- 1 0.0 4.0 6 41
r 0.691227 2 3 cbr 1000 ------- 2 1.0 5.0 26 32
+ 0.691227 3 5 cbr 1000 ------- 2 1.0 5.0 26 32
- 0.691227 3 5 cbr 1000 ------- 2 1.0 5.0 26 32
r 0.69136 3 5 cbr 1000 ------- 2 1.0 5.0 24 29
- 0.69256 2 3 tcp 1040 ------- 1 0.0 4.0 3 37
r 0.693657 1 2 cbr 1000 ------- 2 1.0 5.0 32 42
+ 0.693657 2 3 cbr 1000 ------- 2 1.0 5.0 32 42
+ 0.694286 1 2 cbr 1000 ------- 2 1.0 5.0 34 44
- 0.694286 1 2 cbr 1000 ------- 2 1.0 5.0 34 44
r 0.69656 2 3 cbr 1000 ------- 2 1.0 5.0 27 33
+ 0.69656 3 5 cbr 1000 ------- 2 1.0 5.0 27 33
- 0.69656 3 5 cbr 1000 ------- 2 1.0 5.0 27 33
r 0.696693 3 5 cbr 1000 ------- 2 1.0 5.0 25 31
- 0.698107 2 3 tcp 1040 ------- 1 0.0 4.0 4 38
r 0.699371 1 2 cbr 1000 ------- 2 1.0 5.0 33 43
+ 0.699371 2 3 cbr 1000 ------- 2 1.0 5.0 33 43
+ 0.7 1 2 cbr 1000 ------- 2 1.0 5.0 35 45
- 0.7 1 2 cbr 1000 ------- 2 1.0 5.0 35 45
r 0.701893 2 3 cbr 1000 ------- 2 1.0 5.0 28 34
+ 0.701893 3 5 cbr 1000 ------- 2 1.0 5.0 28 34
- 0.701893 3 5 cbr 1000 ------- 2 1.0 5.0 28 34
r 0.702027 3 5 cbr 1000 ------- 2 1.0 5.0 26 32
- 0.703653 2 3 cbr 1000 ------- 2 1.0 5.0 31 39
r 0.705086 1 2 cbr 1000 ------- 2 1.0 5.0 34 44
+ 0.705086 2 3 cbr 1000 ------- 2 1.0 5.0 34 44
+ 0.705714 1 2 cbr 1000 ------- 2 1.0 5.0 36 46
- 0.705714 1 2 cbr 1000 ------- 2 1.0 5.0 36 46
r 0.707227 2 3 cbr 1000 ------- 2 1.0 5.0 29 35
+ 0.707227 3 5 cbr 1000 ------- 2 1.0 5.0 29 35
- 0.707227 3 5 cbr 1000 ------- 2 1.0 5.0 29 35
r 0.70736 3 5 cbr 1000 ------- 2 1.0 5.0 27 33
- 0.708987 2 3 tcp 1040 ------- 1 0.0 4.0 5 40
r 0.7108 1 2 cbr 1000 ------- 2 1.0 5.0 35 45
+ 0.7108 2 3 cbr 1000 ------- 2 1.0 5.0 35 45
+ 0.711429 1 2 cbr 1000 ------- 2 1.0 5.0 37 47
- 0.711429 1 2 cbr 1000 ------- 2 1.0 5.0 37 47
r 0.71256 2 3 cbr 1000 ------- 2 1.0 5.0 30 36
+ 0.71256 3 5 cbr 1000 ------- 2 1.0 5.0 30 36
- 0.71256 3 5 cbr 1000 ------- 2 1.0 5.0 30 36
r 0.712693 3 5 cbr 1000 ------- 2 1.0 5.0 28 34
- 0.714533 2 3 tcp 1040 ------- 1 0.0 4.0 6 41
r 0.716514 1 2 cbr 1000 ------- 2 1.0 5.0 36 46
+ 0.716514 2 3 cbr 1000 ------- 2 1.0 5.0 36 46
+ 0.717143 1 2 cbr 1000 ------- 2 1.0 5.0 38 48
- 0.717143 1 2 cbr 1000 ------- 2 1.0 5.0 38 48
r 0.718027 3 5 cbr 1000 ------- 2 1.0 5.0 29 35
r 0.718107 2 3 tcp 1040 ------- 1 0.0 4.0 3 37
+ 0.718107 3 4 tcp 1040 ------- 1 0.0 4.0 3 37
- 0.718107 3 4 tcp 1040 ------- 1 0.0 4.0 3 37
- 0.72008 2 3 cbr 1000 ------- 2 1.0 5.0 32 42
r 0.722229 1 2 cbr 1000 ------- 2 1.0 5.0 37 47
+ 0.722229 2 3 cbr 1000 ------- 2 1.0 5.0 37 47
+ 0.722857 1 2 cbr 1000 ------- 2 1.0 5.0 39 49
- 0.722857 1 2 cbr 1000 ------- 2 1.0 5.0 39 49
r 0.72336 3 5 cbr 1000 ------- 2 1.0 5.0 30 36
r 0.723653 2 3 tcp 1040 ------- 1 0.0 4.0 4 38
+ 0.723653 3 4 tcp 1040 ------- 1 0.0 4.0 4 38
- 0.723653 3 4 tcp 1040 ------- 1 0.0 4.0 4 38
- 0.725413 2 3 cbr 1000 ------- 2 1.0 5.0 33 43
r 0.727943 1 2 cbr 1000 ------- 2 1.0 5.0 38 48
+ 0.727943 2 3 cbr 1000 ------- 2 1.0 5.0 38 48
+ 0.728571 1 2 cbr 1000 ------- 2 1.0 5.0 40 50
- 0.728571 1 2 cbr 1000 ------- 2 1.0 5.0 40 50
r 0.728939 3 4 tcp 1040 ------- 1 0.0 4.0 3 37
+ 0.728939 4 3 ack 40 ------- 1 4.0 0.0 3 51
- 0.728939 4 3 ack 40 ------- 1 4.0 0.0 3 51
r 0.728987 2 3 cbr 1000 ------- 2 1.0 5.0 31 39
+ 0.728987 3 5 cbr 1000 ------- 2 1.0 5.0 31 39
- 0.728987 3 5 cbr 1000 ------- 2 1.0 5.0 31 39
- 0.730747 2 3 cbr 1000 ------- 2 1.0 5.0 34 44
r 0.733657 1 2 cbr 1000 ------- 2 1.0 5.0 39 49
+ 0.733657 2 3 cbr 1000 ------- 2 1.0 5.0 39 49
+ 0.734286 1 2 cbr 1000 ------- 2 1.0 5.0 41 52
- 0.734286 1 2 cbr 1000 ------- 2 1.0 5.0 41 52
r 0.734485 3 4 tcp 1040 ------- 1 0.0 4.0 4 38
+ 0.734485 4 3 ack 40 ------- 1 4.0 0.0 4 53
- 0.734485 4 3 ack 40 ------- 1 4.0 0.0 4 53
r 0.734533 2 3 tcp 1040 ------- 1 0.0 4.0 5 40
+ 0.734533 3 4 tcp 1040 ------- 1 0.0 4.0 5 40
- 0.734533 3 4 tcp 1040 ------- 1 0.0 4.0 5 40
- 0.73608 2 3 cbr 1000 ------- 2 1.0 5.0 35 45
r 0.738971 4 3 ack 40 ------- 1 4.0 0.0 3 51
+ 0.738971 3 2 ack 40 ------- 1 4.0 0.0 3 51
- 0.738971 3 2 ack 40 ------- 1 4.0 0.0 3 51
r 0.739371 1 2 cbr 1000 ------- 2 1.0 5.0 40 50
+ 0.739371 2 3 cbr 1000 ------- 2 1.0 5.0 40 50
r 0.739787 3 5 cbr 1000 ------- 2 1.0 5.0 31 39
+ 0.74 1 2 cbr 1000 ------- 2 1.0 5.0 42 54
- 0.74 1 2 cbr 1000 ------- 2 1.0 5.0 42 54
r 0.74008 2 3 tcp 1040 ------- 1 0.0 4.0 6 41
+ 0.74008 3 4 tcp 1040 ------- 1 0.0 4.0 6 41
- 0.74008 3 4 tcp 1040 ------- 1 0.0 4.0 6 41
- 0.741413 2 3 cbr 1000 ------- 2 1.0 5.0 36 46
r 0.744517 4 3 ack 40 ------- 1 4.0 0.0 4 53
+ 0.744517 3 2 ack 40 ------- 1 4.0 0.0 4 53
- 0.744517 3 2 ack 40 ------- 1 4.0 0.0 4 53
r 0.745086 1 2 cbr 1000 ------- 2 1.0 5.0 41 52
+ 0.745086 2 3 cbr 1000 ------- 2 1.0 5.0 41 52
r 0.745365 3 4 tcp 1040 ------- 1 0.0 4.0 5 40
+ 0.745365 4 3 ack 40 ------- 1 4.0 0.0 5 55
- 0.745365 4 3 ack 40 ------- 1 4.0 0.0 5 55
r 0.745413 2 3 cbr 1000 ------- 2 1.0 5.0 32 42
+ 0.745413 3 5 cbr 1000 ------- 2 1.0 5.0 32 42
- 0.745413 3 5 cbr 1000 ------- 2 1.0 5.0 32 42
+ 0.745714 1 2 cbr 1000 ------- 2 1.0 5.0 43 56
- 0.745714 1 2 cbr 1000 ------- 2 1.0 5.0 43 56
- 0.746747 2 3 cbr 1000 ------- 2 1.0 5.0 37 47
r 0.750747 2 3 cbr 1000 ------- 2 1.0 5.0 33 43
+ 0.750747 3 5 cbr 1000 ------- 2 1.0 5.0 33 43
- 0.750747 3 5 cbr 1000 ------- 2 1.0 5.0 33 43
r 0.7508 1 2 cbr 1000 ------- 2 1.0 5.0 42 54
+ 0.7508 2 3 cbr 1000 ------- 2 1.0 5.0 42 54
r 0.750912 3 4 tcp 1040 ------- 1 0.0 4.0 6 41
+ 0.750912 4 3 ack 40 ------- 1 4.0 0.0 6 57
- 0.750912 4 3 ack 40 ------- 1 4.0 0.0 6 57
+ 0.751429 1 2 cbr 1000 ------- 2 1.0 5.0 44 58
- 0.751429 1 2 cbr 1000 ------- 2 1.0 5.0 44 58
- 0.75208 2 3 cbr 1000 ------- 2 1.0 5.0 38 48
r 0.755397 4 3 ack 40 ------- 1 4.0 0.0 5 55
+ 0.755397 3 2 ack 40 ------- 1 4.0 0.0 5 55
- 0.755397 3 2 ack 40 ------- 1 4.0 0.0 5 55
r 0.75608 2 3 cbr 1000 ------- 2 1.0 5.0 34 44
+ 0.75608 3 5 cbr 1000 ------- 2 1.0 5.0 34 44
- 0.75608 3 5 cbr 1000 ------- 2 1.0 5.0 34 44
r 0.756213 3 5 cbr 1000 ------- 2 1.0 5.0 32 42
r 0.756514 1 2 cbr 1000 ------- 2 1.0 5.0 43 56
+ 0.756514 2 3 cbr 1000 ------- 2 1.0 5.0 43 56
+ 0.757143 1 2 cbr 1000 ------- 2 1.0 5.0 45 59
- 0.757143 1 2 cbr 1000 ------- 2 1.0 5.0 45 59
- 0.757413 2 3 cbr 1000 ------- 2 1.0 5.0 39 49
r 0.759184 3 2 ack 40 ------- 1 4.0 0.0 3 51
+ 0.759184 2 0 ack 40 ------- 1 4.0 0.0 3 51
- 0.759184 2 0 ack 40 ------- 1 4.0 0.0 3 51
r 0.760944 4 3 ack 40 ------- 1 4.0 0.0 6 57
+ 0.760944 3 2 ack 40 ------- 1 4.0 0.0 6 57
- 0.760944 3 2 ack 40 ------- 1 4.0 0.0 6 57
r 0.761413 2 3 cbr 1000 ------- 2 1.0 5.0 35 45
+ 0.761413 3 5 cbr 1000 ------- 2 1.0 5.0 35 45
- 0.761413 3 5 cbr 1000 ------- 2 1.0 5.0 35 45
r 0.761547 3 5 cbr 1000 ------- 2 1.0 5.0 33 43
r 0.762229 1 2 cbr 1000 ------- 2 1.0 5.0 44 58
+ 0.762229 2 3 cbr 1000 ------- 2 1.0 5.0 44 58
- 0.762747 2 3 cbr 1000 ------- 2 1.0 5.0 40 50
+ 0.762857 1 2 cbr 1000 ------- 2 1.0 5.0 46 60
- 0.762857 1 2 cbr 1000 ------- 2 1.0 5.0 46 60
r 0.764731 3 2 ack 40 ------- 1 4.0 0.0 4 53
+ 0.764731 2 0 ack 40 ------- 1 4.0 0.0 4 53
- 0.764731 2 0 ack 40 ------- 1 4.0 0.0 4 53
r 0.766747 2 3 cbr 1000 ------- 2 1.0 5.0 36 46
+ 0.766747 3 5 cbr 1000 ------- 2 1.0 5.0 36 46
- 0.766747 3 5 cbr 1000 ------- 2 1.0 5.0 36 46
r 0.76688 3 5 cbr 1000 ------- 2 1.0 5.0 34 44
r 0.767943 1 2 cbr 1000 ------- 2 1.0 5.0 45 59
+ 0.767943 2 3 cbr 1000 ------- 2 1.0 5.0 45 59
- 0.76808 2 3 cbr 1000 ------- 2 1.0 5.0 41 52
+ 0.768571 1 2 cbr 1000 ------- 2 1.0 5.0 47 61
- 0.768571 1 2 cbr 1000 ------- 2 1.0 5.0 47 61
r 0.769216 2 0 ack 40 ------- 1 4.0 0.0 3 51
+ 0.769216 0 2 tcp 1040 ------- 1 0.0 4.0 7 62
- 0.769216 0 2 tcp 1040 ------- 1 0.0 4.0 7 62
+ 0.769216 0 2 tcp 1040 ------- 1 0.0 4.0 8 63
- 0.770048 0 2 tcp 1040 ------- 1 0.0 4.0 8 63
r 0.77208 2 3 cbr 1000 ------- 2 1.0 5.0 37 47
+ 0.77208 3 5 cbr 1000 ------- 2 1.0 5.0 37 47
- 0.77208 3 5 cbr 1000 ------- 2 1.0 5.0 37 47
r 0.772213 3 5 cbr 1000 ------- 2 1.0 5.0 35 45
- 0.773413 2 3 cbr 1000 ------- 2 1.0 5.0 42 54
r 0.773657 1 2 cbr 1000 ------- 2 1.0 5.0 46 60
+ 0.773657 2 3 cbr 1000 ------- 2 1.0 5.0 46 60
+ 0.774286 1 2 cbr 1000 ------- 2 1.0 5.0 48 64
- 0.774286 1 2 cbr 1000 ------- 2 1.0 5.0 48 64
r 0.774763 2 0 ack 40 ------- 1 4.0 0.0 4 53
+ 0.774763 0 2 tcp 1040 ------- 1 0.0 4.0 9 65
- 0.774763 0 2 tcp 1040 ------- 1 0.0 4.0 9 65
+ 0.774763 0 2 tcp 1040 ------- 1 0.0 4.0 10 66
- 0.775595 0 2 tcp 1040 ------- 1 0.0 4.0 10 66
r 0.775611 3 2 ack 40 ------- 1 4.0 0.0 5 55
+ 0.775611 2 0 ack 40 ------- 1 4.0 0.0 5 55
- 0.775611 2 0 ack 40 ------- 1 4.0 0.0 5 55
r 0.777413 2 3 cbr 1000 ------- 2 1.0 5.0 38 48
+ 0.777413 3 5 cbr 1000 ------- 2 1.0 5.0 38 48
- 0.777413 3 5 cbr 1000 ------- 2 1.0 5.0 38 48
r 0.777547 3 5 cbr 1000 ------- 2 1.0 5.0 36 46
- 0.778747 2 3 cbr 1000 ------- 2 1.0 5.0 43 56
r 0.779371 1 2 cbr 1000 ------- 2 1.0 5.0 47 61
+ 0.779371 2 3 cbr 1000 ------- 2 1.0 5.0 47 61
+ 0.78 1 2 cbr 1000 ------- 2 1.0 5.0 49 67
- 0.78 1 2 cbr 1000 ------- 2 1.0 5.0 49 67
r 0.780048 0 2 tcp 1040 ------- 1 0.0 4.0 7 62
+ 0.780048 2 3 tcp 1040 ------- 1 0.0 4.0 7 62
r 0.78088 0 2 tcp 1040 ------- 1 0.0 4.0 8 63
+ 0.78088 2 3 tcp 1040 ------- 1 0.0 4.0 8 63
r 0.781157 3 2 ack 40 ------- 1 4.0 0.0 6 57
+ 0.781157 2 0 ack 40 ------- 1 4.0 0.0 6 57
- 0.781157 2 0 ack 40 ------- 1 4.0 0.0 6 57
r 0.782747 2 3 cbr 1000 ------- 2 1.0 5.0 39 49
+ 0.782747 3 5 cbr 1000 ------- 2 1.0 5.0 39 49
- 0.782747 3 5 cbr 1000 ------- 2 1.0 5.0 39 49
r 0.78288 3 5 cbr 1000 ------- 2 1.0 5.0 37 47
- 0.78408 2 3 cbr 1000 ------- 2 1.0 5.0 44 58
r 0.785086 1 2 cbr 1000 ------- 2 1.0 5.0 48 64
+ 0.785086 2 3 cbr 1000 ------- 2 1.0 5.0 48 64
r 0.785595 0 2 tcp 1040 ------- 1 0.0 4.0 9 65
+ 0.785595 2 3 tcp 1040 ------- 1 0.0 4.0 9 65
r 0.785643 2 0 ack 40 ------- 1 4.0 0.0 5 55
+ 0.785643 0 2 tcp 1040 ------- 1 0.0 4.0 11 68
- 0.785643 0 2 tcp 1040 ------- 1 0.0 4.0 11 68
+ 0.785643 0 2 tcp 1040 ------- 1 0.0 4.0 12 69
+ 0.785714 1 2 cbr 1000 ------- 2 1.0 5.0 50 70
- 0.785714 1 2 cbr 1000 ------- 2 1.0 5.0 50 70
r 0.786427 0 2 tcp 1040 ------- 1 0.0 4.0 10 66
+ 0.786427 2 3 tcp 1040 ------- 1 0.0 4.0 10 66
- 0.786475 0 2 tcp 1040 ------- 1 0.0 4.0 12 69
r 0.78808 2 3 cbr 1000 ------- 2 1.0 5.0 40 50
+ 0.78808 3 5 cbr 1000 ------- 2 1.0 5.0 40 50
- 0.78808 3 5 cbr 1000 ------- 2 1.0 5.0 40 50
r 0.788213 3 5 cbr 1000 ------- 2 1.0 5.0 38 48
- 0.789413 2 3 cbr 1000 ------- 2 1.0 5.0 45 59
r 0.7908 1 2 cbr 1000 ------- 2 1.0 5.0 49 67
+ 0.7908 2 3 cbr 1000 ------- 2 1.0 5.0 49 67
r 0.791189 2 0 ack 40 ------- 1 4.0 0.0 6 57
+ 0.791189 0 2 tcp 1040 ------- 1 0.0 4.0 13 71
- 0.791189 0 2 tcp 1040 ------- 1 0.0 4.0 13 71
+ 0.791189 0 2 tcp 1040 ------- 1 0.0 4.0 14 72
+ 0.791429 1 2 cbr 1000 ------- 2 1.0 5.0 51 73
- 0.791429 1 2 cbr 1000 ------- 2 1.0 5.0 51 73
- 0.792021 0 2 tcp 1040 ------- 1 0.0 4.0 14 72
r 0.793413 2 3 cbr 1000 ------- 2 1.0 5.0 41 52
+ 0.793413 3 5 cbr 1000 ------- 2 1.0 5.0 41 52
- 0.793413 3 5 cbr 1000 ------- 2 1.0 5.0 41 52
r 0.793547 3 5 cbr 1000 ------- 2 1.0 5.0 39 49
- 0.794747 2 3 cbr 1000 ------- 2 1.0 5.0 46 60
r 0.796475 0 2 tcp 1040 ------- 1 0.0 4.0 11 68
+ 0.796475 2 3 tcp 1040 ------- 1 0.0 4.0 11 68
r 0.796514 1 2 cbr 1000 ------- 2 1.0 5.0 50 70
+ 0.796514 2 3 cbr 1000 ------- 2 1.0 5.0 50 70
+ 0.797143 1 2 cbr 1000 ------- 2 1.0 5.0 52 74
- 0.797143 1 2 cbr 1000 ------- 2 1.0 5.0 52 74
r 0.797307 0 2 tcp 1040 ------- 1 0.0 4.0 12 69
+ 0.797307 2 3 tcp 1040 ------- 1 0.0 4.0 12 69
r 0.798747 2 3 cbr 1000 ------- 2 1.0 5.0 42 54
+ 0.798747 3 5 cbr 1000 ------- 2 1.0 5.0 42 54
- 0.798747 3 5 cbr 1000 ------- 2 1.0 5.0 42 54
r 0.79888 3 5 cbr 1000 ------- 2 1.0 5.0 40 50
- 0.80008 2 3 cbr 1000 ------- 2 1.0 5.0 47 61
r 0.802021 0 2 tcp 1040 ------- 1 0.0 4.0 13 71
+ 0.802021 2 3 tcp 1040 ------- 1 0.0 4.0 13 71
r 0.802229 1 2 cbr 1000 ------- 2 1.0 5.0 51 73
+ 0.802229 2 3 cbr 1000 ------- 2 1.0 5.0 51 73
r 0.802853 0 2 tcp 1040 ------- 1 0.0 4.0 14 72
+ 0.802853 2 3 tcp 1040 ------- 1 0.0 4.0 14 72
+ 0.802857 1 2 cbr 1000 ------- 2 1.0 5.0 53 75
- 0.802857 1 2 cbr 1000 ------- 2 1.0 5.0 53 75
r 0.80408 2 3 cbr 1000 ------- 2 1.0 5.0 43 56
+ 0.80408 3 5 cbr 1000 ------- 2 1.0 5.0 43 56
- 0.80408 3 5 cbr 1000 ------- 2 1.0 5.0 43 56
r 0.804213 3 5 cbr 1000 ------- 2 1.0 5.0 41 52
- 0.805413 2 3 tcp 1040 ------- 1 0.0 4.0 7 62
r 0.807943 1 2 cbr 1000 ------- 2 1.0 5.0 52 74
+ 0.807943 2 3 cbr 1000 ------- 2 1.0 5.0 52 74
+ 0.808571 1 2 cbr 1000 ------- 2 1.0 5.0 54 76
- 0.808571 1 2 cbr 1000 ------- 2 1.0 5.0 54 76
r 0.809413 2 3 cbr 1000 ------- 2 1.0 5.0 44 58
+ 0.809413 3 5 cbr 1000 ------- 2 1.0 5.0 44 58
- 0.809413 3 5 cbr 1000 ------- 2 1.0 5.0 44 58
r 0.809547 3 5 cbr 1000 ------- 2 1.0 5.0 42 54
- 0.81096 2 3 tcp 1040 ------- 1 0.0 4.0 8 63
r 0.813657 1 2 cbr 1000 ------- 2 1.0 5.0 53 75
+ 0.813657 2 3 cbr 1000 ------- 2 1.0 5.0 53 75
+ 0.814286 1 2 cbr 1000 ------- 2 1.0 5.0 55 77
- 0.814286 1 2 cbr 1000 ------- 2 1.0 5.0 55 77
r 0.814747 2 3 cbr 1000 ------- 2 1.0 5.0 45 59
+ 0.814747 3 5 cbr 1000 ------- 2 1.0 5.0 45 59
- 0.814747 3 5 cbr 1000 ------- 2 1.0 5.0 45 59
r 0.81488 3 5 cbr 1000 ------- 2 1.0 5.0 43 56
- 0.816507 2 3 cbr 1000 ------- 2 1.0 5.0 48 64
r 0.819371 1 2 cbr 1000 ------- 2 1.0 5.0 54 76
+ 0.819371 2 3 cbr 1000 ------- 2 1.0 5.0 54 76
+ 0.82 1 2 cbr 1000 ------- 2 1.0 5.0 56 78
- 0.82 1 2 cbr 1000 ------- 2 1.0 5.0 56 78
r 0.82008 2 3 cbr 1000 ------- 2 1.0 5.0 46 60
+ 0.82008 3 5 cbr 1000 ------- 2 1.0 5.0 46 60
- 0.82008 3 5 cbr 1000 ------- 2 1.0 5.0 46 60
r 0.820213 3 5 cbr 1000 ------- 2 1.0 5.0 44 58
- 0.82184 2 3 tcp 1040 ------- 1 0.0 4.0 9 65
r 0.825086 1 2 cbr 1000 ------- 2 1.0 5.0 55 77
+ 0.825086 2 3 cbr 1000 ------- 2 1.0 5.0 55 77
r 0.825413 2 3 cbr 1000 ------- 2 1.0 5.0 47 61
+ 0.825413 3 5 cbr 1000 ------- 2 1.0 5.0 47 61
- 0.825413 3 5 cbr 1000 ------- 2 1.0 5.0 47 61
r 0.825547 3 5 cbr 1000 ------- 2 1.0 5.0 45 59
+ 0.825714 1 2 cbr 1000 ------- 2 1.0 5.0 57 79
- 0.825714 1 2 cbr 1000 ------- 2 1.0 5.0 57 79
- 0.827387 2 3 tcp 1040 ------- 1 0.0 4.0 10 66
r 0.8308 1 2 cbr 1000 ------- 2 1.0 5.0 56 78
+ 0.8308 2 3 cbr 1000 ------- 2 1.0 5.0 56 78
r 0.83088 3 5 cbr 1000 ------- 2 1.0 5.0 46 60
r 0.83096 2 3 tcp 1040 ------- 1 0.0 4.0 7 62
+ 0.83096 3 4 tcp 1040 ------- 1 0.0 4.0 7 62
- 0.83096 3 4 tcp 1040 ------- 1 0.0 4.0 7 62
+ 0.831429 1 2 cbr 1000 ------- 2 1.0 5.0 58 80
- 0.831429 1 2 cbr 1000 ------- 2 1.0 5.0 58 80
- 0.832933 2 3 cbr 1000 ------- 2 1.0 5.0 49 67
r 0.836213 3 5 cbr 1000 ------- 2 1.0 5.0 47 61