+ 0.5 0 2 tcp 40 ------- 1 0.0 4.0 0 0
- 0.5 0 2 tcp 40 ------- 1 0.0 4.0 0 0
+ 0.5 1 2 cbr 1000 ------- 2 1.0 5.0 0 1
- 0.5 1 2 cbr 1000 ------- 2 1.0 5.0 0 1
r 0.510032 0 2 tcp 40 ------- 1 0.0 4.0 0 0
+ 0.510032 2 3 tcp 40 ------- 1 0.0 4.0 0 0
- 0.510032 2 3 tcp 40 ------- 1 0.0 4.0 0 0
r 0.5108 1 2 cbr 1000 ------- 2 1.0 5.0 0 1
+ 0.5108 2 3 cbr 1000 ------- 2 1.0 5.0 0 1
- 0.5108 2 3 cbr 1000 ------- 2 1.0 5.0 0 1
+ 0.526667 1 2 cbr 1000 ------- 2 1.0 5.0 1 2
- 0.526667 1 2 cbr 1000 ------- 2 1.0 5.0 1 2
r 0.530245 2 3 tcp 40 ------- 1 0.0 4.0 0 0
+ 0.530245 3 4 tcp 40 ------- 1 0.0 4.0 0 0
- 0.530245 3 4 tcp 40 ------- 1 0.0 4.0 0 0
r 0.536133 2 3 cbr 1000 ------- 2 1.0 5.0 0 1
+ 0.536133 3 5 cbr 1000 ------- 2 1.0 5.0 0 1
- 0.536133 3 5 cbr 1000 ------- 2 1.0 5.0 0 1
r 0.537467 1 2 cbr 1000 ------- 2 1.0 5.0 1 2
+ 0.537467 2 3 cbr 1000 ------- 2 1.0 5.0 1 2
- 0.537467 2 3 cbr 1000 ------- 2 1.0 5.0 1 2
r 0.540277 3 4 tcp 40 ------- 1 0.0 4.0 0 0
+ 0.540277 4 3 ack 40 ------- 1 4.0 0.0 0 3
- 0.540277 4 3 ack 40 ------- 1 4.0 0.0 0 3
r 0.546933 3 5 cbr 1000 ------- 2 1.0 5.0 0 1
r 0.550309 4 3 ack 40 ------- 1 4.0 0.0 0 3
+ 0.550309 3 2 ack 40 ------- 1 4.0 0.0 0 3
- 0.550309 3 2 ack 40 ------- 1 4.0 0.0 0 3
+ 0.553333 1 2 cbr 1000 ------- 2 1.0 5.0 2 4
- 0.553333 1 2 cbr 1000 ------- 2 1.0 5.0 2 4
r 0.5628 2 3 cbr 1000 ------- 2 1.0 5.0 1 2
+ 0.5628 3 5 cbr 1000 ------- 2 1.0 5.0 1 2
- 0.5628 3 5 cbr 1000 ------- 2 1.0 5.0 1 2
r 0.564133 1 2 cbr 1000 ------- 2 1.0 5.0 2 4
+ 0.564133 2 3 cbr 1000 ------- 2 1.0 5.0 2 4
- 0.564133 2 3 cbr 1000 ------- 2 1.0 5.0 2 4
r 0.570523 3 2 ack 40 ------- 1 4.0 0.0 0 3
+ 0.570523 2 0 ack 40 ------- 1 4.0 0.0 0 3
- 0.570523 2 0 ack 40 ------- 1 4.0 0.0 0 3
r 0.5736 3 5 cbr 1000 ------- 2 1.0 5.0 1 2
+ 0.58 1 2 cbr 1000 ------- 2 1.0 5.0 3 5
- 0.58 1 2 cbr 1000 ------- 2 1.0 5.0 3 5
r 0.580555 2 0 ack 40 ------- 1 4.0 0.0 0 3
+ 0.580555 0 2 tcp 1040 ------- 1 0.0 4.0 1 6
- 0.580555 0 2 tcp 1040 ------- 1 0.0 4.0 1 6
+ 0.580555 0 2 tcp 1040 ------- 1 0.0 4.0 2 7
- 0.581387 0 2 tcp 1040 ------- 1 0.0 4.0 2 7
r 0.589467 2 3 cbr 1000 ------- 2 1.0 5.0 2 4
+ 0.589467 3 5 cbr 1000 ------- 2 1.0 5.0 2 4
- 0.589467 3 5 cbr 1000 ------- 2 1.0 5.0 2 4
r 0.5908 1 2 cbr 1000 ------- 2 1.0 5.0 3 5
+ 0.5908 2 3 cbr 1000 ------- 2 1.0 5.0 3 5
- 0.5908 2 3 cbr 1000 ------- 2 1.0 5.0 3 5
r 0.591387 0 2 tcp 1040 ------- 1 0.0 4.0 1 6
+ 0.591387 2 3 tcp 1040 ------- 1 0.0 4.0 1 6
r 0.592219 0 2 tcp 1040 ------- 1 0.0 4.0 2 7
+ 0.592219 2 3 tcp 1040 ------- 1 0.0 4.0 2 7
- 0.596133 2 3 tcp 1040 ------- 1 0.0 4.0 1 6
r 0.600267 3 5 cbr 1000 ------- 2 1.0 5.0 2 4
- 0.60168 2 3 tcp 1040 ------- 1 0.0 4.0 2 7
+ 0.606667 1 2 cbr 1000 ------- 2 1.0 5.0 4 8
- 0.606667 1 2 cbr 1000 ------- 2 1.0 5.0 4 8
r 0.616133 2 3 cbr 1000 ------- 2 1.0 5.0 3 5
+ 0.616133 3 5 cbr 1000 ------- 2 1.0 5.0 3 5
- 0.616133 3 5 cbr 1000 ------- 2 1.0 5.0 3 5
r 0.617467 1 2 cbr 1000 ------- 2 1.0 5.0 4 8
+ 0.617467 2 3 cbr 1000 ------- 2 1.0 5.0 4 8
- 0.617467 2 3 cbr 1000 ------- 2 1.0 5.0 4 8
r 0.62168 2 3 tcp 1040 ------- 1 0.0 4.0 1 6
+ 0.62168 3 4 tcp 1040 ------- 1 0.0 4.0 1 6
- 0.62168 3 4 tcp 1040 ------- 1 0.0 4.0 1 6
r 0.626933 3 5 cbr 1000 ------- 2 1.0 5.0 3 5
r 0.627227 2 3 tcp 1040 ------- 1 0.0 4.0 2 7
+ 0.627227 3 4 tcp 1040 ------- 1 0.0 4.0 2 7
- 0.627227 3 4 tcp 1040 ------- 1 0.0 4.0 2 7
r 0.632512 3 4 tcp 1040 ------- 1 0.0 4.0 1 6
+ 0.632512 4 3 ack 40 ------- 1 4.0 0.0 1 9
- 0.632512 4 3 ack 40 ------- 1 4.0 0.0 1 9
+ 0.633333 1 2 cbr 1000 ------- 2 1.0 5.0 5 10
- 0.633333 1 2 cbr 1000 ------- 2 1.0 5.0 5 10
r 0.638059 3 4 tcp 1040 ------- 1 0.0 4.0 2 7
+ 0.638059 4 3 ack 40 ------- 1 4.0 0.0 2 11
- 0.638059 4 3 ack 40 ------- 1 4.0 0.0 2 11
r 0.642544 4 3 ack 40 ------- 1 4.0 0.0 1 9
+ 0.642544 3 2 ack 40 ------- 1 4.0 0.0 1 9
- 0.642544 3 2 ack 40 ------- 1 4.0 0.0 1 9
r 0.6428 2 3 cbr 1000 ------- 2 1.0 5.0 4 8
+ 0.6428 3 5 cbr 1000 ------- 2 1.0 5.0 4 8
- 0.6428 3 5 cbr 1000 ------- 2 1.0 5.0 4 8
r 0.644133 1 2 cbr 1000 ------- 2 1.0 5.0 5 10
+ 0.644133 2 3 cbr 1000 ------- 2 1.0 5.0 5 10
- 0.644133 2 3 cbr 1000 ------- 2 1.0 5.0 5 10
r 0.648091 4 3 ack 40 ------- 1 4.0 0.0 2 11
+ 0.648091 3 2 ack 40 ------- 1 4.0 0.0 2 11
- 0.648091 3 2 ack 40 ------- 1 4.0 0.0 2 11
r 0.6536 3 5 cbr 1000 ------- 2 1.0 5.0 4 8
+ 0.66 1 2 cbr 1000 ------- 2 1.0 5.0 6 12
- 0.66 1 2 cbr 1000 ------- 2 1.0 5.0 6 12
r 0.662757 3 2 ack 40 ------- 1 4.0 0.0 1 9
+ 0.662757 2 0 ack 40 ------- 1 4.0 0.0 1 9
- 0.662757 2 0 ack 40 ------- 1 4.0 0.0 1 9
r 0.668304 3 2 ack 40 ------- 1 4.0 0.0 2 11
+ 0.668304 2 0 ack 40 ------- 1 4.0 0.0 2 11
- 0.668304 2 0 ack 40 ------- 1 4.0 0.0 2 11
r 0.669467 2 3 cbr 1000 ------- 2 1.0 5.0 5 10
+ 0.669467 3 5 cbr 1000 ------- 2 1.0 5.0 5 10
- 0.669467 3 5 cbr 1000 ------- 2 1.0 5.0 5 10
r 0.6708 1 2 cbr 1000 ------- 2 1.0 5.0 6 12
+ 0.6708 2 3 cbr 1000 ------- 2 1.0 5.0 6 12
- 0.6708 2 3 cbr 1000 ------- 2 1.0 5.0 6 12
r 0.672789 2 0 ack 40 ------- 1 4.0 0.0 1 9
+ 0.672789 0 2 tcp 1040 ------- 1 0.0 4.0 3 13
- 0.672789 0 2 tcp 1040 ------- 1 0.0 4.0 3 13
+ 0.672789 0 2 tcp 1040 ------- 1 0.0 4.0 4 14
- 0.673621 0 2 tcp 1040 ------- 1 0.0 4.0 4 14
r 0.678336 2 0 ack 40 ------- 1 4.0 0.0 2 11
+ 0.678336 0 2 tcp 1040 ------- 1 0.0 4.0 5 15
- 0.678336 0 2 tcp 1040 ------- 1 0.0 4.0 5 15
+ 0.678336 0 2 tcp 1040 ------- 1 0.0 4.0 6 16
- 0.679168 0 2 tcp 1040 ------- 1 0.0 4.0 6 16
r 0.680267 3 5 cbr 1000 ------- 2 1.0 5.0 5 10
r 0.683621 0 2 tcp 1040 ------- 1 0.0 4.0 3 13
+ 0.683621 2 3 tcp 1040 ------- 1 0.0 4.0 3 13
- 0.683621 2 3 tcp 1040 ------- 1 0.0 4.0 3 13
r 0.684453 0 2 tcp 1040 ------- 1 0.0 4.0 4 14
+ 0.684453 2 3 tcp 1040 ------- 1 0.0 4.0 4 14
+ 0.686667 1 2 cbr 1000 ------- 2 1.0 5.0 7 17
- 0.686667 1 2 cbr 1000 ------- 2 1.0 5.0 7 17
r 0.689168 0 2 tcp 1040 ------- 1 0.0 4.0 5 15
+ 0.689168 2 3 tcp 1040 ------- 1 0.0 4.0 5 15
- 0.689168 2 3 tcp 1040 ------- 1 0.0 4.0 4 14
r 0.69 0 2 tcp 1040 ------- 1 0.0 4.0 6 16
+ 0.69 2 3 tcp 1040 ------- 1 0.0 4.0 6 16
- 0.694715 2 3 tcp 1040 ------- 1 0.0 4.0 5 15
r 0.696133 2 3 cbr 1000 ------- 2 1.0 5.0 6 12
+ 0.696133 3 5 cbr 1000 ------- 2 1.0 5.0 6 12
- 0.696133 3 5 cbr 1000 ------- 2 1.0 5.0 6 12
r 0.697467 1 2 cbr 1000 ------- 2 1.0 5.0 7 17
+ 0.697467 2 3 cbr 1000 ------- 2 1.0 5.0 7 17
- 0.700261 2 3 tcp 1040 ------- 1 0.0 4.0 6 16
- 0.705808 2 3 cbr 1000 ------- 2 1.0 5.0 7 17
r 0.706933 3 5 cbr 1000 ------- 2 1.0 5.0 6 12
r 0.709168 2 3 tcp 1040 ------- 1 0.0 4.0 3 13
+ 0.709168 3 4 tcp 1040 ------- 1 0.0 4.0 3 13
- 0.709168 3 4 tcp 1040 ------- 1 0.0 4.0 3 13
+ 0.713333 1 2 cbr 1000 ------- 2 1.0 5.0 8 18
- 0.713333 1 2 cbr 1000 ------- 2 1.0 5.0 8 18
r 0.714715 2 3 tcp 1040 ------- 1 0.0 4.0 4 14
+ 0.714715 3 4 tcp 1040 ------- 1 0.0 4.0 4 14
- 0.714715 3 4 tcp 1040 ------- 1 0.0 4.0 4 14
r 0.72 3 4 tcp 1040 ------- 1 0.0 4.0 3 13
+ 0.72 4 3 ack 40 ------- 1 4.0 0.0 3 19
- 0.72 4 3 ack 40 ------- 1 4.0 0.0 3 19
r 0.720261 2 3 tcp 1040 ------- 1 0.0 4.0 5 15
+ 0.720261 3 4 tcp 1040 ------- 1 0.0 4.0 5 15
- 0.720261 3 4 tcp 1040 ------- 1 0.0 4.0 5 15
r 0.724133 1 2 cbr 1000 ------- 2 1.0 5.0 8 18
+ 0.724133 2 3 cbr 1000 ------- 2 1.0 5.0 8 18
- 0.724133 2 3 cbr 1000 ------- 2 1.0 5.0 8 18
r 0.725547 3 4 tcp 1040 ------- 1 0.0 4.0 4 14
+ 0.725547 4 3 ack 40 ------- 1 4.0 0.0 4 20
- 0.725547 4 3 ack 40 ------- 1 4.0 0.0 4 20
r 0.725808 2 3 tcp 1040 ------- 1 0.0 4.0 6 16
+ 0.725808 3 4 tcp 1040 ------- 1 0.0 4.0 6 16
- 0.725808 3 4 tcp 1040 ------- 1 0.0 4.0 6 16
r 0.730032 4 3 ack 40 ------- 1 4.0 0.0 3 19
+ 0.730032 3 2 ack 40 ------- 1 4.0 0.0 3 19
- 0.730032 3 2 ack 40 ------- 1 4.0 0.0 3 19
r 0.731093 3 4 tcp 1040 ------- 1 0.0 4.0 5 15
+ 0.731093 4 3 ack 40 ------- 1 4.0 0.0 5 21
- 0.731093 4 3 ack 40 ------- 1 4.0 0.0 5 21
r 0.731141 2 3 cbr 1000 ------- 2 1.0 5.0 7 17
+ 0.731141 3 5 cbr 1000 ------- 2 1.0 5.0 7 17
- 0.731141 3 5 cbr 1000 ------- 2 1.0 5.0 7 17
r 0.735579 4 3 ack 40 ------- 1 4.0 0.0 4 20
+ 0.735579 3 2 ack 40 ------- 1 4.0 0.0 4 20
- 0.735579 3 2 ack 40 ------- 1 4.0 0.0 4 20
r 0.73664 3 4 tcp 1040 ------- 1 0.0 4.0 6 16
+ 0.73664 4 3 ack 40 ------- 1 4.0 0.0 6 22
- 0.73664 4 3 ack 40 ------- 1 4.0 0.0 6 22
+ 0.739736 1 2 cbr 1000 ------- 2 1.0 5.0 9 23
- 0.739736 1 2 cbr 1000 ------- 2 1.0 5.0 9 23
r 0.741125 4 3 ack 40 ------- 1 4.0 0.0 5 21
+ 0.741125 3 2 ack 40 ------- 1 4.0 0.0 5 21
- 0.741125 3 2 ack 40 ------- 1 4.0 0.0 5 21
r 0.741941 3 5 cbr 1000 ------- 2 1.0 5.0 7 17
r 0.746672 4 3 ack 40 ------- 1 4.0 0.0 6 22
+ 0.746672 3 2 ack 40 ------- 1 4.0 0.0 6 22
- 0.746672 3 2 ack 40 ------- 1 4.0 0.0 6 22
r 0.749467 2 3 cbr 1000 ------- 2 1.0 5.0 8 18
+ 0.749467 3 5 cbr 1000 ------- 2 1.0 5.0 8 18
- 0.749467 3 5 cbr 1000 ------- 2 1.0 5.0 8 18
r 0.750245 3 2 ack 40 ------- 1 4.0 0.0 3 19
+ 0.750245 2 0 ack 40 ------- 1 4.0 0.0 3 19
- 0.750245 2 0 ack 40 ------- 1 4.0 0.0 3 19
r 0.750536 1 2 cbr 1000 ------- 2 1.0 5.0 9 23
+ 0.750536 2 3 cbr 1000 ------- 2 1.0 5.0 9 23
- 0.750536 2 3 cbr 1000 ------- 2 1.0 5.0 9 23
r 0.755792 3 2 ack 40 ------- 1 4.0 0.0 4 20
+ 0.755792 2 0 ack 40 ------- 1 4.0 0.0 4 20
- 0.755792 2 0 ack 40 ------- 1 4.0 0.0 4 20
r 0.760267 3 5 cbr 1000 ------- 2 1.0 5.0 8 18
r 0.760277 2 0 ack 40 ------- 1 4.0 0.0 3 19
+ 0.760277 0 2 tcp 1040 ------- 1 0.0 4.0 7 24
- 0.760277 0 2 tcp 1040 ------- 1 0.0 4.0 7 24
+ 0.760277 0 2 tcp 1040 ------- 1 0.0 4.0 8 25
- 0.761109 0 2 tcp 1040 ------- 1 0.0 4.0 8 25
r 0.761339 3 2 ack 40 ------- 1 4.0 0.0 5 21
+ 0.761339 2 0 ack 40 ------- 1 4.0 0.0 5 21
- 0.761339 2 0 ack 40 ------- 1 4.0 0.0 5 21
r 0.765824 2 0 ack 40 ------- 1 4.0 0.0 4 20
+ 0.765824 0 2 tcp 1040 ------- 1 0.0 4.0 9 26
- 0.765824 0 2 tcp 1040 ------- 1 0.0 4.0 9 26
+ 0.765824 0 2 tcp 1040 ------- 1 0.0 4.0 10 27
+ 0.766139 1 2 cbr 1000 ------- 2 1.0 5.0 10 28
- 0.766139 1 2 cbr 1000 ------- 2 1.0 5.0 10 28
- 0.766656 0 2 tcp 1040 ------- 1 0.0 4.0 10 27
r 0.766885 3 2 ack 40 ------- 1 4.0 0.0 6 22
+ 0.766885 2 0 ack 40 ------- 1 4.0 0.0 6 22
- 0.766885 2 0 ack 40 ------- 1 4.0 0.0 6 22
r 0.771109 0 2 tcp 1040 ------- 1 0.0 4.0 7 24
+ 0.771109 2 3 tcp 1040 ------- 1 0.0 4.0 7 24
- 0.771109 2 3 tcp 1040 ------- 1 0.0 4.0 7 24
r 0.771371 2 0 ack 40 ------- 1 4.0 0.0 5 21
+ 0.771371 0 2 tcp 1040 ------- 1 0.0 4.0 11 29
- 0.771371 0 2 tcp 1040 ------- 1 0.0 4.0 11 29
+ 0.771371 0 2 tcp 1040 ------- 1 0.0 4.0 12 30
r 0.771941 0 2 tcp 1040 ------- 1 0.0 4.0 8 25
+ 0.771941 2 3 tcp 1040 ------- 1 0.0 4.0 8 25
- 0.772203 0 2 tcp 1040 ------- 1 0.0 4.0 12 30
r 0.775869 2 3 cbr 1000 ------- 2 1.0 5.0 9 23
+ 0.775869 3 5 cbr 1000 ------- 2 1.0 5.0 9 23
- 0.775869 3 5 cbr 1000 ------- 2 1.0 5.0 9 23
r 0.776656 0 2 tcp 1040 ------- 1 0.0 4.0 9 26
+ 0.776656 2 3 tcp 1040 ------- 1 0.0 4.0 9 26
- 0.776656 2 3 tcp 1040 ------- 1 0.0 4.0 8 25
r 0.776917 2 0 ack 40 ------- 1 4.0 0.0 6 22
+ 0.776917 0 2 tcp 1040 ------- 1 0.0 4.0 13 31
- 0.776917 0 2 tcp 1040 ------- 1 0.0 4.0 13 31
+ 0.776917 0 2 tcp 1040 ------- 1 0.0 4.0 14 32
r 0.776939 1 2 cbr 1000 ------- 2 1.0 5.0 10 28
+ 0.776939 2 3 cbr 1000 ------- 2 1.0 5.0 10 28
r 0.777488 0 2 tcp 1040 ------- 1 0.0 4.0 10 27
+ 0.777488 2 3 tcp 1040 ------- 1 0.0 4.0 10 27
- 0.777749 0 2 tcp 1040 ------- 1 0.0 4.0 14 32
r 0.782203 0 2 tcp 1040 ------- 1 0.0 4.0 11 29
+ 0.782203 2 3 tcp 1040 ------- 1 0.0 4.0 11 29
- 0.782203 2 3 tcp 1040 ------- 1 0.0 4.0 9 26
r 0.783035 0 2 tcp 1040 ------- 1 0.0 4.0 12 30
+ 0.783035 2 3 tcp 1040 ------- 1 0.0 4.0 12 30
r 0.786669 3 5 cbr 1000 ------- 2 1.0 5.0 9 23
r 0.787749 0 2 tcp 1040 ------- 1 0.0 4.0 13 31
+ 0.787749 2 3 tcp 1040 ------- 1 0.0 4.0 13 31
- 0.787749 2 3 cbr 1000 ------- 2 1.0 5.0 10 28
r 0.788581 0 2 tcp 1040 ------- 1 0.0 4.0 14 32
+ 0.788581 2 3 tcp 1040 ------- 1 0.0 4.0 14 32
+ 0.792541 1 2 cbr 1000 ------- 2 1.0 5.0 11 33
- 0.792541 1 2 cbr 1000 ------- 2 1.0 5.0 11 33
- 0.793083 2 3 tcp 1040 ------- 1 0.0 4.0 10 27
r 0.796656 2 3 tcp 1040 ------- 1 0.0 4.0 7 24
+ 0.796656 3 4 tcp 1040 ------- 1 0.0 4.0 7 24
- 0.796656 3 4 tcp 1040 ------- 1 0.0 4.0 7 24
- 0.798629 2 3 tcp 1040 ------- 1 0.0 4.0 11 29
r 0.802203 2 3 tcp 1040 ------- 1 0.0 4.0 8 25
+ 0.802203 3 4 tcp 1040 ------- 1 0.0 4.0 8 25
- 0.802203 3 4 tcp 1040 ------- 1 0.0 4.0 8 25
r 0.803341 1 2 cbr 1000 ------- 2 1.0 5.0 11 33
+ 0.803341 2 3 cbr 1000 ------- 2 1.0 5.0 11 33
- 0.804176 2 3 tcp 1040 ------- 1 0.0 4.0 12 30
r 0.807488 3 4 tcp 1040 ------- 1 0.0 4.0 7 24
+ 0.807488 4 3 ack 40 ------- 1 4.0 0.0 7 34
- 0.807488 4 3 ack 40 ------- 1 4.0 0.0 7 34
r 0.807749 2 3 tcp 1040 ------- 1 0.0 4.0 9 26
+ 0.807749 3 4 tcp 1040 ------- 1 0.0 4.0 9 26
- 0.807749 3 4 tcp 1040 ------- 1 0.0 4.0 9 26
- 0.809723 2 3 tcp 1040 ------- 1 0.0 4.0 13 31
r 0.813035 3 4 tcp 1040 ------- 1 0.0 4.0 8 25
+ 0.813035 4 3 ack 40 ------- 1 4.0 0.0 8 35
- 0.813035 4 3 ack 40 ------- 1 4.0 0.0 8 35
r 0.813083 2 3 cbr 1000 ------- 2 1.0 5.0 10 28
+ 0.813083 3 5 cbr 1000 ------- 2 1.0 5.0 10 28
- 0.813083 3 5 cbr 1000 ------- 2 1.0 5.0 10 28
- 0.815269 2 3 tcp 1040 ------- 1 0.0 4.0 14 32
r 0.81752 4 3 ack 40 ------- 1 4.0 0.0 7 34
+ 0.81752 3 2 ack 40 ------- 1 4.0 0.0 7 34
- 0.81752 3 2 ack 40 ------- 1 4.0 0.0 7 34
r 0.818581 3 4 tcp 1040 ------- 1 0.0 4.0 9 26
+ 0.818581 4 3 ack 40 ------- 1 4.0 0.0 9 36
- 0.818581 4 3 ack 40 ------- 1 4.0 0.0 9 36
r 0.818629 2 3 tcp 1040 ------- 1 0.0 4.0 10 27
+ 0.818629 3 4 tcp 1040 ------- 1 0.0 4.0 10 27
- 0.818629 3 4 tcp 1040 ------- 1 0.0 4.0 10 27
+ 0.818944 1 2 cbr 1000 ------- 2 1.0 5.0 12 37
- 0.818944 1 2 cbr 1000 ------- 2 1.0 5.0 12 37
- 0.820816 2 3 cbr 1000 ------- 2 1.0 5.0 11 33
r 0.823067 4 3 ack 40 ------- 1 4.0 0.0 8 35
+ 0.823067 3 2 ack 40 ------- 1 4.0 0.0 8 35
- 0.823067 3 2 ack 40 ------- 1 4.0 0.0 8 35
r 0.823883 3 5 cbr 1000 ------- 2 1.0 5.0 10 28
r 0.824176 2 3 tcp 1040 ------- 1 0.0 4.0 11 29
+ 0.824176 3 4 tcp 1040 ------- 1 0.0 4.0 11 29
- 0.824176 3 4 tcp 1040 ------- 1 0.0 4.0 11 29
r 0.828613 4 3 ack 40 ------- 1 4.0 0.0 9 36
+ 0.828613 3 2 ack 40 ------- 1 4.0 0.0 9 36
- 0.828613 3 2 ack 40 ------- 1 4.0 0.0 9 36
r 0.829461 3 4 tcp 1040 ------- 1 0.0 4.0 10 27
+ 0.829461 4 3 ack 40 ------- 1 4.0 0.0 10 38
- 0.829461 4 3 ack 40 ------- 1 4.0 0.0 10 38
r 0.829723 2 3 tcp 1040 ------- 1 0.0 4.0 12 30
+ 0.829723 3 4 tcp 1040 ------- 1 0.0 4.0 12 30
- 0.829723 3 4 tcp 1040 ------- 1 0.0 4.0 12 30
r 0.829744 1 2 cbr 1000 ------- 2 1.0 5.0 12 37
+ 0.829744 2 3 cbr 1000 ------- 2 1.0 5.0 12 37
- 0.829744 2 3 cbr 1000 ------- 2 1.0 5.0 12 37
r 0.835008 3 4 tcp 1040 ------- 1 0.0 4.0 11 29
+ 0.835008 4 3 ack 40 ------- 1 4.0 0.0 11 39
- 0.835008 4 3 ack 40 ------- 1 4.0 0.0 11 39
r 0.835269 2 3 tcp 1040 ------- 1 0.0 4.0 13 31
+ 0.835269 3 4 tcp 1040 ------- 1 0.0 4.0 13 31
- 0.835269 3 4 tcp 1040 ------- 1 0.0 4.0 13 31
r 0.837733 3 2 ack 40 ------- 1 4.0 0.0 7 34
+ 0.837733 2 0 ack 40 ------- 1 4.0 0.0 7 34
- 0.837733 2 0 ack 40 ------- 1 4.0 0.0 7 34
r 0.839493 4 3 ack 40 ------- 1 4.0 0.0 10 38
+ 0.839493 3 2 ack 40 ------- 1 4.0 0.0 10 38
- 0.839493 3 2 ack 40 ------- 1 4.0 0.0 10 38
r 0.840555 3 4 tcp 1040 ------- 1 0.0 4.0 12 30
+ 0.840555 4 3 ack 40 ------- 1 4.0 0.0 12 40
- 0.840555 4 3 ack 40 ------- 1 4.0 0.0 12 40
r 0.840816 2 3 tcp 1040 ------- 1 0.0 4.0 14 32
+ 0.840816 3 4 tcp 1040 ------- 1 0.0 4.0 14 32
- 0.840816 3 4 tcp 1040 ------- 1 0.0 4.0 14 32
r 0.84328 3 2 ack 40 ------- 1 4.0 0.0 8 35
+ 0.84328 2 0 ack 40 ------- 1 4.0 0.0 8 35
- 0.84328 2 0 ack 40 ------- 1 4.0 0.0 8 35
r 0.84504 4 3 ack 40 ------- 1 4.0 0.0 11 39
+ 0.84504 3 2 ack 40 ------- 1 4.0 0.0 11 39
- 0.84504 3 2 ack 40 ------- 1 4.0 0.0 11 39
+ 0.845347 1 2 cbr 1000 ------- 2 1.0 5.0 13 41
- 0.845347 1 2 cbr 1000 ------- 2 1.0 5.0 13 41
r 0.846101 3 4 tcp 1040 ------- 1 0.0 4.0 13 31
+ 0.846101 4 3 ack 40 ------- 1 4.0 0.0 13 42
- 0.846101 4 3 ack 40 ------- 1 4.0 0.0 13 42
r 0.846149 2 3 cbr 1000 ------- 2 1.0 5.0 11 33
+ 0.846149 3 5 cbr 1000 ------- 2 1.0 5.0 11 33
- 0.846149 3 5 cbr 1000 ------- 2 1.0 5.0 11 33
r 0.847765 2 0 ack 40 ------- 1 4.0 0.0 7 34
+ 0.847765 0 2 tcp 1040 ------- 1 0.0 4.0 15 43
- 0.847765 0 2 tcp 1040 ------- 1 0.0 4.0 15 43
+ 0.847765 0 2 tcp 1040 ------- 1 0.0 4.0 16 44
- 0.848597 0 2 tcp 1040 ------- 1 0.0 4.0 16 44
r 0.848827 3 2 ack 40 ------- 1 4.0 0.0 9 36
+ 0.848827 2 0 ack 40 ------- 1 4.0 0.0 9 36
- 0.848827 2 0 ack 40 ------- 1 4.0 0.0 9 36
r 0.850587 4 3 ack 40 ------- 1 4.0 0.0 12 40
+ 0.850587 3 2 ack 40 ------- 1 4.0 0.0 12 40
- 0.850587 3 2 ack 40 ------- 1 4.0 0.0 12 40
r 0.851648 3 4 tcp 1040 ------- 1 0.0 4.0 14 32
+ 0.851648 4 3 ack 40 ------- 1 4.0 0.0 14 45
- 0.851648 4 3 ack 40 ------- 1 4.0 0.0 14 45
r 0.853312 2 0 ack 40 ------- 1 4.0 0.0 8 35
+ 0.853312 0 2 tcp 1040 ------- 1 0.0 4.0 17 46
- 0.853312 0 2 tcp 1040 ------- 1 0.0 4.0 17 46
+ 0.853312 0 2 tcp 1040 ------- 1 0.0 4.0 18 47
- 0.854144 0 2 tcp 1040 ------- 1 0.0 4.0 18 47
r 0.855077 2 3 cbr 1000 ------- 2 1.0 5.0 12 37
+ 0.855077 3 5 cbr 1000 ------- 2 1.0 5.0 12 37
- 0.855077 3 5 cbr 1000 ------- 2 1.0 5.0 12 37
r 0.856133 4 3 ack 40 ------- 1 4.0 0.0 13 42
+ 0.856133 3 2 ack 40 ------- 1 4.0 0.0 13 42
- 0.856133 3 2 ack 40 ------- 1 4.0 0.0 13 42
r 0.856147 1 2 cbr 1000 ------- 2 1.0 5.0 13 41
+ 0.856147 2 3 cbr 1000 ------- 2 1.0 5.0 13 41
- 0.856147 2 3 cbr 1000 ------- 2 1.0 5.0 13 41
r 0.856949 3 5 cbr 1000 ------- 2 1.0 5.0 11 33
r 0.858597 0 2 tcp 1040 ------- 1 0.0 4.0 15 43
+ 0.858597 2 3 tcp 1040 ------- 1 0.0 4.0 15 43
r 0.858859 2 0 ack 40 ------- 1 4.0 0.0 9 36
+ 0.858859 0 2 tcp 1040 ------- 1 0.0 4.0 19 48
- 0.858859 0 2 tcp 1040 ------- 1 0.0 4.0 19 48
+ 0.858859 0 2 tcp 1040 ------- 1 0.0 4.0 20 49
r 0.859429 0 2 tcp 1040 ------- 1 0.0 4.0 16 44
+ 0.859429 2 3 tcp 1040 ------- 1 0.0 4.0 16 44
- 0.859691 0 2 tcp 1040 ------- 1 0.0 4.0 20 49
r 0.859707 3 2 ack 40 ------- 1 4.0 0.0 10 38
+ 0.859707 2 0 ack 40 ------- 1 4.0 0.0 10 38
- 0.859707 2 0 ack 40 ------- 1 4.0 0.0 10 38
- 0.86148 2 3 tcp 1040 ------- 1 0.0 4.0 15 43
r 0.86168 4 3 ack 40 ------- 1 4.0 0.0 14 45
+ 0.86168 3 2 ack 40 ------- 1 4.0 0.0 14 45
- 0.86168 3 2 ack 40 ------- 1 4.0 0.0 14 45
r 0.864144 0 2 tcp 1040 ------- 1 0.0 4.0 17 46
+ 0.864144 2 3 tcp 1040 ------- 1 0.0 4.0 17 46
r 0.864976 0 2 tcp 1040 ------- 1 0.0 4.0 18 47
+ 0.864976 2 3 tcp 1040 ------- 1 0.0 4.0 18 47
r 0.865253 3 2 ack 40 ------- 1 4.0 0.0 11 39
+ 0.865253 2 0 ack 40 ------- 1 4.0 0.0 11 39
- 0.865253 2 0 ack 40 ------- 1 4.0 0.0 11 39
r 0.865877 3 5 cbr 1000 ------- 2 1.0 5.0 12 37
- 0.867027 2 3 tcp 1040 ------- 1 0.0 4.0 16 44
r 0.869691 0 2 tcp 1040 ------- 1 0.0 4.0 19 48
+ 0.869691 2 3 tcp 1040 ------- 1 0.0 4.0 19 48
r 0.869739 2 0 ack 40 ------- 1 4.0 0.0 10 38
+ 0.869739 0 2 tcp 1040 ------- 1 0.0 4.0 21 50
- 0.869739 0 2 tcp 1040 ------- 1 0.0 4.0 21 50
+ 0.869739 0 2 tcp 1040 ------- 1 0.0 4.0 22 51
r 0.870523 0 2 tcp 1040 ------- 1 0.0 4.0 20 49
+ 0.870523 2 3 tcp 1040 ------- 1 0.0 4.0 20 49
- 0.870571 0 2 tcp 1040 ------- 1 0.0 4.0 22 51
r 0.8708 3 2 ack 40 ------- 1 4.0 0.0 12 40
+ 0.8708 2 0 ack 40 ------- 1 4.0 0.0 12 40
- 0.8708 2 0 ack 40 ------- 1 4.0 0.0 12 40
+ 0.871749 1 2 cbr 1000 ------- 2 1.0 5.0 14 52
- 0.871749 1 2 cbr 1000 ------- 2 1.0 5.0 14 52
- 0.872573 2 3 tcp 1040 ------- 1 0.0 4.0 17 46
r 0.875285 2 0 ack 40 ------- 1 4.0 0.0 11 39
+ 0.875285 0 2 tcp 1040 ------- 1 0.0 4.0 23 53
- 0.875285 0 2 tcp 1040 ------- 1 0.0 4.0 23 53
+ 0.875285 0 2 tcp 1040 ------- 1 0.0 4.0 24 54
- 0.876117 0 2 tcp 1040 ------- 1 0.0 4.0 24 54
r 0.876347 3 2 ack 40 ------- 1 4.0 0.0 13 42
+ 0.876347 2 0 ack 40 ------- 1 4.0 0.0 13 42
- 0.876347 2 0 ack 40 ------- 1 4.0 0.0 13 42
- 0.87812 2 3 tcp 1040 ------- 1 0.0 4.0 18 47
r 0.880571 0 2 tcp 1040 ------- 1 0.0 4.0 21 50
+ 0.880571 2 3 tcp 1040 ------- 1 0.0 4.0 21 50
r 0.880832 2 0 ack 40 ------- 1 4.0 0.0 12 40
+ 0.880832 0 2 tcp 1040 ------- 1 0.0 4.0 25 55
- 0.880832 0 2 tcp 1040 ------- 1 0.0 4.0 25 55
+ 0.880832 0 2 tcp 1040 ------- 1 0.0 4.0 26 56
r 0.881403 0 2 tcp 1040 ------- 1 0.0 4.0 22 51
+ 0.881403 2 3 tcp 1040 ------- 1 0.0 4.0 22 51
r 0.88148 2 3 cbr 1000 ------- 2 1.0 5.0 13 41
+ 0.88148 3 5 cbr 1000 ------- 2 1.0 5.0 13 41
- 0.88148 3 5 cbr 1000 ------- 2 1.0 5.0 13 41
- 0.881664 0 2 tcp 1040 ------- 1 0.0 4.0 26 56
r 0.881893 3 2 ack 40 ------- 1 4.0 0.0 14 45
+ 0.881893 2 0 ack 40 ------- 1 4.0 0.0 14 45
- 0.881893 2 0 ack 40 ------- 1 4.0 0.0 14 45
r 0.882549 1 2 cbr 1000 ------- 2 1.0 5.0 14 52
+ 0.882549 2 3 cbr 1000 ------- 2 1.0 5.0 14 52
- 0.883667 2 3 tcp 1040 ------- 1 0.0 4.0 19 48
r 0.886117 0 2 tcp 1040 ------- 1 0.0 4.0 23 53
+ 0.886117 2 3 tcp 1040 ------- 1 0.0 4.0 23 53
r 0.886379 2 0 ack 40 ------- 1 4.0 0.0 13 42
+ 0.886379 0 2 tcp 1040 ------- 1 0.0 4.0 27 57
- 0.886379 0 2 tcp 1040 ------- 1 0.0 4.0 27 57
+ 0.886379 0 2 tcp 1040 ------- 1 0.0 4.0 28 58
r 0.886949 0 2 tcp 1040 ------- 1 0.0 4.0 24 54
+ 0.886949 2 3 tcp 1040 ------- 1 0.0 4.0 24 54
r 0.887027 2 3 tcp 1040 ------- 1 0.0 4.0 15 43
+ 0.887027 3 4 tcp 1040 ------- 1 0.0 4.0 15 43
- 0.887027 3 4 tcp 1040 ------- 1 0.0 4.0 15 43
- 0.887211 0 2 tcp 1040 ------- 1 0.0 4.0 28 58
- 0.889213 2 3 tcp 1040 ------- 1 0.0 4.0 20 49
r 0.891664 0 2 tcp 1040 ------- 1 0.0 4.0 25 55
+ 0.891664 2 3 tcp 1040 ------- 1 0.0 4.0 25 55
r 0.891925 2 0 ack 40 ------- 1 4.0 0.0 14 45
+ 0.891925 0 2 tcp 1040 ------- 1 0.0 4.0 29 59
- 0.891925 0 2 tcp 1040 ------- 1 0.0 4.0 29 59
+ 0.891925 0 2 tcp 1040 ------- 1 0.0 4.0 30 60
r 0.89228 3 5 cbr 1000 ------- 2 1.0 5.0 13 41
r 0.892496 0 2 tcp 1040 ------- 1 0.0 4.0 26 56
+ 0.892496 2 3 tcp 1040 ------- 1 0.0 4.0 26 56
r 0.892573 2 3 tcp 1040 ------- 1 0.0 4.0 16 44
+ 0.892573 3 4 tcp 1040 ------- 1 0.0 4.0 16 44
- 0.892573 3 4 tcp 1040 ------- 1 0.0 4.0 16 44
- 0.892757 0 2 tcp 1040 ------- 1 0.0 4.0 30 60
- 0.89476 2 3 tcp 1040 ------- 1 0.0 4.0 21 50
r 0.897211 0 2 tcp 1040 ------- 1 0.0 4.0 27 57
+ 0.897211 2 3 tcp 1040 ------- 1 0.0 4.0 27 57
r 0.897859 3 4 tcp 1040 ------- 1 0.0 4.0 15 43
+ 0.897859 4 3 ack 40 ------- 1 4.0 0.0 15 61
- 0.897859 4 3 ack 40 ------- 1 4.0 0.0 15 61
r 0.898043 0 2 tcp 1040 ------- 1 0.0 4.0 28 58
+ 0.898043 2 3 tcp 1040 ------- 1 0.0 4.0 28 58
r 0.89812 2 3 tcp 1040 ------- 1 0.0 4.0 17 46
+ 0.89812 3 4 tcp 1040 ------- 1 0.0 4.0 17 46
- 0.89812 3 4 tcp 1040 ------- 1 0.0 4.0 17 46
+ 0.898152 1 2 cbr 1000 ------- 2 1.0 5.0 15 62
- 0.898152 1 2 cbr 1000 ------- 2 1.0 5.0 15 62
- 0.900307 2 3 tcp 1040 ------- 1 0.0 4.0 22 51
r 0.902757 0 2 tcp 1040 ------- 1 0.0 4.0 29 59
+ 0.902757 2 3 tcp 1040 ------- 1 0.0 4.0 29 59
r 0.903405 3 4 tcp 1040 ------- 1 0.0 4.0 16 44
+ 0.903405 4 3 ack 40 ------- 1 4.0 0.0 16 63
- 0.903405 4 3 ack 40 ------- 1 4.0 0.0 16 63
r 0.903589 0 2 tcp 1040 ------- 1 0.0 4.0 30 60
+ 0.903589 2 3 tcp 1040 ------- 1 0.0 4.0 30 60
r 0.903667 2 3 tcp 1040 ------- 1 0.0 4.0 18 47
+ 0.903667 3 4 tcp 1040 ------- 1 0.0 4.0 18 47
- 0.903667 3 4 tcp 1040 ------- 1 0.0 4.0 18 47
- 0.905853 2 3 cbr 1000 ------- 2 1.0 5.0 14 52
r 0.907891 4 3 ack 40 ------- 1 4.0 0.0 15 61
+ 0.907891 3 2 ack 40 ------- 1 4.0 0.0 15 61
- 0.907891 3 2 ack 40 ------- 1 4.0 0.0 15 61
r 0.908952 1 2 cbr 1000 ------- 2 1.0 5.0 15 62
+ 0.908952 2 3 cbr 1000 ------- 2 1.0 5.0 15 62
r 0.908952 3 4 tcp 1040 ------- 1 0.0 4.0 17 46
+ 0.908952 4 3 ack 40 ------- 1 4.0 0.0 17 64
- 0.908952 4 3 ack 40 ------- 1 4.0 0.0 17 64
r 0.909213 2 3 tcp 1040 ------- 1 0.0 4.0 19 48
+ 0.909213 3 4 tcp 1040 ------- 1 0.0 4.0 19 48
- 0.909213 3 4 tcp 1040 ------- 1 0.0 4.0 19 48
- 0.911187 2 3 tcp 1040 ------- 1 0.0 4.0 23 53
r 0.913437 4 3 ack 40 ------- 1 4.0 0.0 16 63
+ 0.913437 3 2 ack 40 ------- 1 4.0 0.0 16 63
- 0.913437 3 2 ack 40 ------- 1 4.0 0.0 16 63
r 0.914499 3 4 tcp 1040 ------- 1 0.0 4.0 18 47
+ 0.914499 4 3 ack 40 ------- 1 4.0 0.0 18 65
- 0.914499 4 3 ack 40 ------- 1 4.0 0.0 18 65
r 0.91476 2 3 tcp 1040 ------- 1 0.0 4.0 20 49
+ 0.91476 3 4 tcp 1040 ------- 1 0.0 4.0 20 49
- 0.91476 3 4 tcp 1040 ------- 1 0.0 4.0 20 49
- 0.916733 2 3 tcp 1040 ------- 1 0.0 4.0 24 54
r 0.918984 4 3 ack 40 ------- 1 4.0 0.0 17 64
+ 0.918984 3 2 ack 40 ------- 1 4.0 0.0 17 64
- 0.918984 3 2 ack 40 ------- 1 4.0 0.0 17 64
r 0.920045 3 4 tcp 1040 ------- 1 0.0 4.0 19 48
+ 0.920045 4 3 ack 40 ------- 1 4.0 0.0 19 66
- 0.920045 4 3 ack 40 ------- 1 4.0 0.0 19 66
r 0.920307 2 3 tcp 1040 ------- 1 0.0 4.0 21 50
+ 0.920307 3 4 tcp 1040 ------- 1 0.0 4.0 21 50
- 0.920307 3 4 tcp 1040 ------- 1 0.0 4.0 21 50
- 0.92228 2 3 tcp 1040 ------- 1 0.0 4.0 25 55
r 0.924531 4 3 ack 40 ------- 1 4.0 0.0 18 65
+ 0.924531 3 2 ack 40 ------- 1 4.0 0.0 18 65
- 0.924531 3 2 ack 40 ------- 1 4.0 0.0 18 65
+ 0.924554 1 2 cbr 1000 ------- 2 1.0 5.0 16 67
- 0.924554 1 2 cbr 1000 ------- 2 1.0 5.0 16 67
r 0.925592 3 4 tcp 1040 ------- 1 0.0 4.0 20 49
+ 0.925592 4 3 ack 40 ------- 1 4.0 0.0 20 68
- 0.925592 4 3 ack 40 ------- 1 4.0 0.0 20 68
r 0.925853 2 3 tcp 1040 ------- 1 0.0 4.0 22 51
+ 0.925853 3 4 tcp 1040 ------- 1 0.0 4.0 22 51
- 0.925853 3 4 tcp 1040 ------- 1 0.0 4.0 22 51
- 0.927827 2 3 tcp 1040 ------- 1 0.0 4.0 26 56
r 0.928104 3 2 ack 40 ------- 1 4.0 0.0 15 61
+ 0.928104 2 0 ack 40 ------- 1 4.0 0.0 15 61
- 0.928104 2 0 ack 40 ------- 1 4.0 0.0 15 61
r 0.930077 4 3 ack 40 ------- 1 4.0 0.0 19 66
+ 0.930077 3 2 ack 40 ------- 1 4.0 0.0 19 66
- 0.930077 3 2 ack 40 ------- 1 4.0 0.0 19 66
r 0.931139 3 4 tcp 1040 ------- 1 0.0 4.0 21 50
+ 0.931139 4 3 ack 40 ------- 1 4.0 0.0 21 69
- 0.931139 4 3 ack 40 ------- 1 4.0 0.0 21 69
r 0.931187 2 3 cbr 1000 ------- 2 1.0 5.0 14 52
+ 0.931187 3 5 cbr 1000 ------- 2 1.0 5.0 14 52
- 0.931187 3 5 cbr 1000 ------- 2 1.0 5.0 14 52
- 0.933373 2 3 tcp 1040 ------- 1 0.0 4.0 27 57
r 0.933651 3 2 ack 40 ------- 1 4.0 0.0 16 63
+ 0.933651 2 0 ack 40 ------- 1 4.0 0.0 16 63
- 0.933651 2 0 ack 40 ------- 1 4.0 0.0 16 63
r 0.935354 1 2 cbr 1000 ------- 2 1.0 5.0 16 67
+ 0.935354 2 3 cbr 1000 ------- 2 1.0 5.0 16 67
r 0.935624 4 3 ack 40 ------- 1 4.0 0.0 20 68
+ 0.935624 3 2 ack 40 ------- 1 4.0 0.0 20 68
- 0.935624 3 2 ack 40 ------- 1 4.0 0.0 20 68
r 0.936685 3 4 tcp 1040 ------- 1 0.0 4.0 22 51
+ 0.936685 4 3 ack 40 ------- 1 4.0 0.0 22 70
- 0.936685 4 3 ack 40 ------- 1 4.0 0.0 22 70
r 0.936733 2 3 tcp 1040 ------- 1 0.0 4.0 23 53
+ 0.936733 3 4 tcp 1040 ------- 1 0.0 4.0 23 53
- 0.936733 3 4 tcp 1040 ------- 1 0.0 4.0 23 53
r 0.938136 2 0 ack 40 ------- 1 4.0 0.0 15 61
+ 0.938136 0 2 tcp 1040 ------- 1 0.0 4.0 31 71
- 0.938136 0 2 tcp 1040 ------- 1 0.0 4.0 31 71
+ 0.938136 0 2 tcp 1040 ------- 1 0.0 4.0 32 72
- 0.93892 2 3 tcp 1040 ------- 1 0.0 4.0 28 58
- 0.938968 0 2 tcp 1040 ------- 1 0.0 4.0 32 72
r 0.939197 3 2 ack 40 ------- 1 4.0 0.0 17 64
+ 0.939197 2 0 ack 40 ------- 1 4.0 0.0 17 64
- 0.939197 2 0 ack 40 ------- 1 4.0 0.0 17 64
r 0.941171 4 3 ack 40 ------- 1 4.0 0.0 21 69
+ 0.941171 3 2 ack 40 ------- 1 4.0 0.0 21 69
- 0.941171 3 2 ack 40 ------- 1 4.0 0.0 21 69
r 0.941987 3 5 cbr 1000 ------- 2 1.0 5.0 14 52
r 0.94228 2 3 tcp 1040 ------- 1 0.0 4.0 24 54
+ 0.94228 3 4 tcp 1040 ------- 1 0.0 4.0 24 54
- 0.94228 3 4 tcp 1040 ------- 1 0.0 4.0 24 54
r 0.943683 2 0 ack 40 ------- 1 4.0 0.0 16 63
+ 0.943683 0 2 tcp 1040 ------- 1 0.0 4.0 33 73
- 0.943683 0 2 tcp 1040 ------- 1 0.0 4.0 33 73
+ 0.943683 0 2 tcp 1040 ------- 1 0.0 4.0 34 74
- 0.944467 2 3 tcp 1040 ------- 1 0.0 4.0 29 59
- 0.944515 0 2 tcp 1040 ------- 1 0.0 4.0 34 74
r 0.944744 3 2 ack 40 ------- 1 4.0 0.0 18 65
+ 0.944744 2 0 ack 40 ------- 1 4.0 0.0 18 65
- 0.944744 2 0 ack 40 ------- 1 4.0 0.0 18 65
r 0.946717 4 3 ack 40 ------- 1 4.0 0.0 22 70
+ 0.946717 3 2 ack 40 ------- 1 4.0 0.0 22 70
- 0.946717 3 2 ack 40 ------- 1 4.0 0.0 22 70
r 0.947565 3 4 tcp 1040 ------- 1 0.0 4.0 23 53
+ 0.947565 4 3 ack 40 ------- 1 4.0 0.0 23 75
- 0.947565 4 3 ack 40 ------- 1 4.0 0.0 23 75
r 0.947827 2 3 tcp 1040 ------- 1 0.0 4.0 25 55
+ 0.947827 3 4 tcp 1040 ------- 1 0.0 4.0 25 55
- 0.947827 3 4 tcp 1040 ------- 1 0.0 4.0 25 55
r 0.948968 0 2 tcp 1040 ------- 1 0.0 4.0 31 71
+ 0.948968 2 3 tcp 1040 ------- 1 0.0 4.0 31 71
r 0.949229 2 0 ack 40 ------- 1 4.0 0.0 17 64
+ 0.949229 0 2 tcp 1040 ------- 1 0.0 4.0 35 76
- 0.949229 0 2 tcp 1040 ------- 1 0.0 4.0 35 76
+ 0.949229 0 2 tcp 1040 ------- 1 0.0 4.0 36 77
r 0.9498 0 2 tcp 1040 ------- 1 0.0 4.0 32 72
+ 0.9498 2 3 tcp 1040 ------- 1 0.0 4.0 32 72
- 0.950013 2 3 tcp 1040 ------- 1 0.0 4.0 30 60
- 0.950061 0 2 tcp 1040 ------- 1 0.0 4.0 36 77
r 0.950291 3 2 ack 40 ------- 1 4.0 0.0 19 66
+ 0.950291 2 0 ack 40 ------- 1 4.0 0.0 19 66
- 0.950291 2 0 ack 40 ------- 1 4.0 0.0 19 66
+ 0.950696 1 2 cbr 1000 ------- 2 1.0 5.0 17 78
- 0.950696 1 2 cbr 1000 ------- 2 1.0 5.0 17 78
r 0.953112 3 4 tcp 1040 ------- 1 0.0 4.0 24 54
+ 0.953112 4 3 ack 40 ------- 1 4.0 0.0 24 79
- 0.953112 4 3 ack 40 ------- 1 4.0 0.0 24 79
r 0.953373 2 3 tcp 1040 ------- 1 0.0 4.0 26 56
+ 0.953373 3 4 tcp 1040 ------- 1 0.0 4.0 26 56
- 0.953373 3 4 tcp 1040 ------- 1 0.0 4.0 26 56
r 0.954515 0 2 tcp 1040 ------- 1 0.0 4.0 33 73
+ 0.954515 2 3 tcp 1040 ------- 1 0.0 4.0 33 73
r 0.954776 2 0 ack 40 ------- 1 4.0 0.0 18 65
+ 0.954776 0 2 tcp 1040 ------- 1 0.0 4.0 37 80
- 0.954776 0 2 tcp 1040 ------- 1 0.0 4.0 37 80
+ 0.954776 0 2 tcp 1040 ------- 1 0.0 4.0 38 81
r 0.955347 0 2 tcp 1040 ------- 1 0.0 4.0 34 74
+ 0.955347 2 3 tcp 1040 ------- 1 0.0 4.0 34 74
- 0.95556 2 3 cbr 1000 ------- 2 1.0 5.0 15 62
- 0.955608 0 2 tcp 1040 ------- 1 0.0 4.0 38 81
r 0.955837 3 2 ack 40 ------- 1 4.0 0.0 20 68
+ 0.955837 2 0 ack 40 ------- 1 4.0 0.0 20 68
- 0.955837 2 0 ack 40 ------- 1 4.0 0.0 20 68
r 0.957597 4 3 ack 40 ------- 1 4.0 0.0 23 75
+ 0.957597 3 2 ack 40 ------- 1 4.0 0.0 23 75
- 0.957597 3 2 ack 40 ------- 1 4.0 0.0 23 75
r 0.958659 3 4 tcp 1040 ------- 1 0.0 4.0 25 55
+ 0.958659 4 3 ack 40 ------- 1 4.0 0.0 25 82
- 0.958659 4 3 ack 40 ------- 1 4.0 0.0 25 82
r 0.95892 2 3 tcp 1040 ------- 1 0.0 4.0 27 57
+ 0.95892 3 4 tcp 1040 ------- 1 0.0 4.0 27 57
- 0.95892 3 4 tcp 1040 ------- 1 0.0 4.0 27 57
r 0.960061 0 2 tcp 1040 ------- 1 0.0 4.0 35 76
+ 0.960061 2 3 tcp 1040 ------- 1 0.0 4.0 35 76
r 0.960323 2 0 ack 40 ------- 1 4.0 0.0 19 66